ITEM: TIMESTEP
0
ITEM: NUMBER OF ATOMS
24
ITEM: BOX BOUNDS pp pp pp
-120.2565 168.3591
-120.2565 168.3591
-120.2565 168.3591
ITEM: ATOMS id type x y z Cluster
567326 4 -18.8974 146.02575 -46.38465 608
567328 2 -15.4616 146.02575 -46.38465 608
567340 1 -18.8974 149.46165 -46.38465 608
567341 2 -17.1795 147.7437 -48.1026 608
567342 4 -15.4616 149.46165 -46.38465 608
567424 1 -18.8974 146.02575 -42.94875 608
567425 1 -17.1795 144.3078 -44.6667 608
567426 2 -15.4616 146.02575 -42.94875 608
567437 4 -20.6154 147.7437 -44.6667 608
567438 3 -18.8974 149.46165 -42.94875 608
567440 4 -15.4616 149.46165 -42.94875 608
567441 1 -13.7436 147.7437 -44.6667 608
567452 4 -18.8974 152.89755 -42.94875 608
567453 1 -17.1795 151.1796 -44.6667 608
567454 2 -15.4616 152.89755 -42.94875 608
567536 1 -18.8974 149.46165 -39.51285 608
567537 2 -17.1795 147.7437 -41.2308 608
567538 2 -15.4616 149.46165 -39.51285 608
567549 3 -20.6154 151.1796 -41.2308 608
567550 4 -18.8974 152.89755 -39.51285 608
567552 1 -15.4616 152.89755 -39.51285 608
567553 3 -13.7436 151.1796 -41.2308 608
567565 4 -17.1795 154.6155 -41.2308 608
567649 3 -17.1795 151.1796 -37.7949 608
