ITEM: TIMESTEP
0
ITEM: NUMBER OF ATOMS
24
ITEM: BOX BOUNDS pp pp pp
-120.2565 168.3591
-120.2565 168.3591
-120.2565 168.3591
ITEM: ATOMS id type x y z Cluster
29502 4 -115.1026 -94.48725 146.02575 491
29504 2 -111.6668 -94.48725 146.02575 491
29516 1 -115.1026 -91.05135 146.02575 491
29517 2 -113.3847 -92.7693 144.3078 491
29518 4 -111.6668 -91.05135 146.02575 491
29600 1 -115.1026 -94.48725 149.46165 491
29601 1 -113.3847 -96.2052 147.7437 491
29602 2 -111.6668 -94.48725 149.46165 491
29613 4 -116.8206 -92.7693 147.7437 491
29614 3 -115.1026 -91.05135 149.46165 491
29616 4 -111.6668 -91.05135 149.46165 491
29617 1 -109.9488 -92.7693 147.7437 491
29628 4 -115.1026 -87.61545 149.46165 491
29629 1 -113.3847 -89.3334 147.7437 491
29630 2 -111.6668 -87.61545 149.46165 491
29712 1 -115.1026 -91.05135 152.89755 491
29713 2 -113.3847 -92.7693 151.1796 491
29714 2 -111.6668 -91.05135 152.89755 491
29725 3 -116.8206 -89.3334 151.1796 491
29726 4 -115.1026 -87.61545 152.89755 491
29728 1 -111.6668 -87.61545 152.89755 491
29729 3 -109.9488 -89.3334 151.1796 491
29741 4 -113.3847 -85.8975 151.1796 491
29825 3 -113.3847 -89.3334 154.6155 491
