ITEM: TIMESTEP
0
ITEM: NUMBER OF ATOMS
14
ITEM: BOX BOUNDS pp pp pp
-120.2565 168.3591
-120.2565 168.3591
-120.2565 168.3591
ITEM: ATOMS id type x y z Cluster
798230 4 80.7436 -91.05135 -32.641 914
798327 4 79.0257 -92.7693 -30.9231 914
798329 1 82.4616 -92.7693 -30.9231 914
798341 4 79.0257 -89.3334 -30.9231 914
798343 3 82.4616 -89.3334 -30.9231 914
798314 2 80.7436 -94.48725 -29.2052 914
798326 2 77.3078 -91.05135 -29.2052 914
798425 3 79.0257 -92.7693 -27.4872 914
798427 1 82.4616 -92.7693 -27.4872 914
798330 1 84.1795 -91.05135 -29.2052 914
798342 4 80.7436 -87.61545 -29.2052 914
798439 2 79.0257 -89.3334 -27.4872 914
798441 2 82.4616 -89.3334 -27.4872 914
798426 2 80.7436 -91.05135 -25.7692 914
