ITEM: TIMESTEP
0
ITEM: NUMBER OF ATOMS
9
ITEM: BOX BOUNDS pp pp pp
-96.2052 134.68728
-120.2565 168.3591
-120.2565 168.3591
ITEM: ATOMS id type x y z Cluster
160132 1 -78.33852 94.48725 152.89755 1
161419 4 -79.71288 96.2052 151.1796 1
161420 3 -78.33852 97.92315 152.89755 1
162864 4 -75.5898 94.48725 152.89755 1
162961 4 -76.96416 92.7693 154.6155 1
164152 1 -75.5898 97.92315 152.89755 1
164153 4 -74.21544 96.2052 151.1796 1
164165 3 -76.96416 99.6411 151.1796 1
164249 2 -76.96416 96.2052 154.6155 1
