ITEM: TIMESTEP
0
ITEM: NUMBER OF ATOMS
14
ITEM: BOX BOUNDS pp pp pp
-120.2565 168.3591
-120.2565 168.3591
-120.2565 168.3591
ITEM: ATOMS id type x y z Cluster
587306 1 -15.4616 142.58985 121.9744 2073
587390 3 -15.4616 139.15395 125.4104 2073
587403 4 -17.1795 140.8719 123.6924 2073
587405 2 -13.7436 140.8719 123.6924 2073
587402 2 -18.8974 142.58985 125.4104 2073
587406 3 -12.0257 142.58985 125.4104 2073
587501 3 -17.1795 140.8719 127.1283 2073
587503 4 -13.7436 140.8719 127.1283 2073
587502 1 -15.4616 142.58985 128.8462 2073
588691 2 -17.1795 144.3078 123.6924 2073
588692 4 -15.4616 146.02575 125.4104 2073
588693 2 -13.7436 144.3078 123.6924 2073
588789 2 -17.1795 144.3078 127.1283 2073
588791 3 -13.7436 144.3078 127.1283 2073
