ITEM: TIMESTEP
0
ITEM: NUMBER OF ATOMS
14
ITEM: BOX BOUNDS pp pp pp
-120.2565 168.3591
-120.2565 168.3591
-120.2565 168.3591
ITEM: ATOMS id type x y z Cluster
450198 3 -1.71795 -53.25645 77.3078 2576
450295 2 -3.4359 -54.9744 79.0257 2576
450282 4 -1.71795 -56.69235 80.7436 2576
450294 1 -5.15385 -53.25645 80.7436 2576
450309 2 -3.4359 -51.5385 79.0257 2576
450310 1 -1.71795 -49.82055 80.7436 2576
450393 1 -3.4359 -54.9744 82.4616 2576
450407 1 -3.4359 -51.5385 82.4616 2576
450394 3 -1.71795 -53.25645 84.1795 2576
453027 3 0.0 -54.9744 79.0257 2576
453028 1 1.71795 -53.25645 80.7436 2576
453041 4 0.0 -51.5385 79.0257 2576
453125 2 0.0 -54.9744 82.4616 2576
453139 2 0.0 -51.5385 82.4616 2576
