ITEM: TIMESTEP
0
ITEM: NUMBER OF ATOMS
16
ITEM: BOX BOUNDS pp pp pp
-96.2052 134.68728
-120.2565 168.3591
-120.2565 168.3591
ITEM: ATOMS id type x y z Cluster
269780 3 -39.85644 -5.15385 -42.94875 2
269794 4 -39.85644 -1.71795 -42.94875 2
269891 1 -41.2308 -3.4359 -41.2308 2
269878 3 -39.85644 -5.15385 -39.51285 2
270984 3 -39.85644 1.71795 -46.38465 2
271081 3 -41.2308 0.0 -44.6667 2
271082 3 -39.85644 1.71795 -42.94875 2
272512 4 -37.10772 -5.15385 -42.94875 2
272526 1 -37.10772 -1.71795 -42.94875 2
272609 4 -38.48208 -6.8718 -41.2308 2
272610 1 -37.10772 -5.15385 -39.51285 2
272625 1 -35.73336 -3.4359 -41.2308 2
273716 4 -37.10772 1.71795 -46.38465 2
273814 3 -37.10772 1.71795 -42.94875 2
273815 1 -35.73336 0.0 -44.6667 2
273827 3 -38.48208 3.4359 -44.6667 2
