ITEM: TIMESTEP
0
ITEM: NUMBER OF ATOMS
14
ITEM: BOX BOUNDS pp pp pp
-120.2565 168.3591
-120.2565 168.3591
-120.2565 168.3591
ITEM: ATOMS id type x y z Cluster
923502 4 80.7436 108.2309 -115.1026 1276
923586 1 80.7436 104.79495 -111.6668 1276
923599 1 79.0257 106.5129 -113.3847 1276
923601 4 82.4616 106.5129 -113.3847 1276
923598 4 77.3078 108.2309 -111.6668 1276
923613 1 79.0257 109.9488 -113.3847 1276
923615 1 82.4616 109.9488 -113.3847 1276
923602 1 84.1795 108.2309 -111.6668 1276
923614 4 80.7436 111.6668 -111.6668 1276
923697 3 79.0257 106.5129 -109.9488 1276
923699 2 82.4616 106.5129 -109.9488 1276
923711 3 79.0257 109.9488 -109.9488 1276
923713 3 82.4616 109.9488 -109.9488 1276
923698 4 80.7436 108.2309 -108.2309 1276
