ITEM: TIMESTEP
0
ITEM: NUMBER OF ATOMS
9
ITEM: BOX BOUNDS pp pp pp
-96.2052 134.68728
-120.2565 168.3591
-120.2565 168.3591
ITEM: ATOMS id type x y z Cluster
1016260 1 114.07188 -97.92315 152.89755 1
1017547 4 112.69752 -96.2052 151.1796 1
1017548 3 114.07188 -94.48725 152.89755 1
1018992 4 116.8206 -97.92315 152.89755 1
1019089 4 115.44624 -99.6411 154.6155 1
1020280 1 116.8206 -94.48725 152.89755 1
1020281 4 118.19496 -96.2052 151.1796 1
1020293 3 115.44624 -92.7693 151.1796 1
1020377 2 115.44624 -96.2052 154.6155 1
