ITEM: TIMESTEP
0
ITEM: NUMBER OF ATOMS
9
ITEM: BOX BOUNDS pp pp pp
-96.2052 134.68728
-120.2565 168.3591
-120.2565 168.3591
ITEM: ATOMS id type x y z Cluster
1158738 2 114.07188 139.15395 -46.38465 0
1158752 4 114.07188 142.58985 -46.38465 0
1158849 3 112.69752 140.8719 -44.6667 0
1161470 3 116.8206 139.15395 -46.38465 0
1161483 3 115.44624 140.8719 -48.1026 0
1161484 1 116.8206 142.58985 -46.38465 0
1161567 2 115.44624 137.436 -44.6667 0
1161583 4 118.19496 140.8719 -44.6667 0
1162771 3 115.44624 144.3078 -48.1026 0
