ITEM: TIMESTEP
0
ITEM: NUMBER OF ATOMS
9
ITEM: BOX BOUNDS pp pp pp
-96.2052 134.68728
-120.2565 168.3591
-120.2565 168.3591
ITEM: ATOMS id type x y z Cluster
446698 3 -1.37436 -46.38465 53.25645 1
446795 4 -2.74872 -48.1026 54.9744 1
446796 3 -1.37436 -46.38465 56.69235 1
449430 3 1.37436 -46.38465 53.25645 1
449443 3 0.0 -44.6667 51.5385 1
449528 1 1.37436 -46.38465 56.69235 1
449529 4 2.74872 -48.1026 54.9744 1
449541 3 0.0 -44.6667 54.9744 1
449625 2 0.0 -48.1026 58.4103 1
