ITEM: TIMESTEP
0
ITEM: NUMBER OF ATOMS
36
ITEM: BOX BOUNDS pp pp pp
-120.2565 168.3591
-120.2565 168.3591
-120.2565 168.3591
ITEM: ATOMS id type x y z Cluster
89723 3 -103.077 10.3077 89.3334 109
89708 1 -104.79495 8.58975 91.05135 109
89807 3 -103.077 6.8718 92.7693 109
89710 2 -101.35905 8.58975 91.05135 109
89809 4 -99.6411 6.8718 92.7693 109
89712 4 -97.92315 8.58975 91.05135 109
89819 1 -106.5129 10.3077 92.7693 109
89823 2 -99.6411 10.3077 92.7693 109
89722 4 -104.79495 12.0257 91.05135 109
89835 4 -103.077 13.7436 92.7693 109
89724 2 -101.35905 12.0257 91.05135 109
89796 2 -97.92315 5.15385 94.48725 109
89806 4 -104.79495 8.58975 94.48725 109
89808 4 -101.35905 8.58975 94.48725 109
89820 3 -104.79495 12.0257 94.48725 109
89822 4 -101.35905 12.0257 94.48725 109
89824 2 -97.92315 12.0257 94.48725 109
89834 1 -104.79495 15.4616 94.48725 109
89836 2 -101.35905 15.4616 94.48725 109
89907 1 -99.6411 6.8718 96.2052 109
89908 3 -97.92315 8.58975 97.92315 109
89919 3 -103.077 10.3077 96.2052 109
89921 2 -99.6411 10.3077 96.2052 109
89931 2 -106.5129 13.7436 96.2052 109
89918 4 -104.79495 12.0257 97.92315 109
89920 4 -101.35905 12.0257 97.92315 109
89935 4 -99.6411 13.7436 96.2052 109
89932 2 -104.79495 15.4616 97.92315 109
89947 4 -103.077 17.1795 96.2052 109
89934 2 -101.35905 15.4616 97.92315 109
90031 1 -103.077 13.7436 99.6411 109
92541 4 -96.2052 6.8718 92.7693 109
92555 1 -96.2052 10.3077 92.7693 109
92542 1 -94.48725 8.58975 94.48725 109
92639 1 -96.2052 6.8718 96.2052 109
92653 2 -96.2052 10.3077 96.2052 109
