ITEM: TIMESTEP
0
ITEM: NUMBER OF ATOMS
9
ITEM: BOX BOUNDS pp pp pp
-96.2052 134.68728
-120.2565 168.3591
-120.2565 168.3591
ITEM: ATOMS id type x y z Cluster
1021538 2 114.07188 -53.25645 -94.48725 0
1021552 4 114.07188 -49.82055 -94.48725 0
1021649 3 112.69752 -51.5385 -92.7693 0
1024270 3 116.8206 -53.25645 -94.48725 0
1024283 3 115.44624 -51.5385 -96.2052 0
1024284 1 116.8206 -49.82055 -94.48725 0
1024367 2 115.44624 -54.9744 -92.7693 0
1024383 4 118.19496 -51.5385 -92.7693 0
1025571 3 115.44624 -48.1026 -96.2052 0
