ITEM: TIMESTEP
0
ITEM: NUMBER OF ATOMS
14
ITEM: BOX BOUNDS pp pp pp
-120.2565 168.3591
-120.2565 168.3591
-120.2565 168.3591
ITEM: ATOMS id type x y z Cluster
962870 4 80.7436 149.46165 -32.641 1476
962967 4 79.0257 147.7437 -30.9231 1476
962969 1 82.4616 147.7437 -30.9231 1476
962981 4 79.0257 151.1796 -30.9231 1476
962983 3 82.4616 151.1796 -30.9231 1476
962954 2 80.7436 146.02575 -29.2052 1476
962966 2 77.3078 149.46165 -29.2052 1476
963065 3 79.0257 147.7437 -27.4872 1476
963067 1 82.4616 147.7437 -27.4872 1476
962970 1 84.1795 149.46165 -29.2052 1476
962982 4 80.7436 152.89755 -29.2052 1476
963079 2 79.0257 151.1796 -27.4872 1476
963081 2 82.4616 151.1796 -27.4872 1476
963066 2 80.7436 149.46165 -25.7692 1476
