ITEM: TIMESTEP
0
ITEM: NUMBER OF ATOMS
16
ITEM: BOX BOUNDS pp pp pp
-96.2052 134.68728
-120.2565 168.3591
-120.2565 168.3591
ITEM: ATOMS id type x y z Cluster
66724 3 -78.33852 -5.15385 -91.05135 2
66738 4 -78.33852 -1.71795 -91.05135 2
66835 1 -79.71288 -3.4359 -89.3334 2
66822 3 -78.33852 -5.15385 -87.61545 2
67928 3 -78.33852 1.71795 -94.48725 2
68025 3 -79.71288 0.0 -92.7693 2
68026 3 -78.33852 1.71795 -91.05135 2
69456 4 -75.5898 -5.15385 -91.05135 2
69470 1 -75.5898 -1.71795 -91.05135 2
69553 4 -76.96416 -6.8718 -89.3334 2
69554 1 -75.5898 -5.15385 -87.61545 2
69569 1 -74.21544 -3.4359 -89.3334 2
70660 4 -75.5898 1.71795 -94.48725 2
70758 3 -75.5898 1.71795 -91.05135 2
70759 1 -74.21544 0.0 -92.7693 2
70771 3 -76.96416 3.4359 -92.7693 2
