ITEM: TIMESTEP
0
ITEM: NUMBER OF ATOMS
14
ITEM: BOX BOUNDS pp pp pp
-120.2565 168.3591
-120.2565 168.3591
-120.2565 168.3591
ITEM: ATOMS id type x y z Cluster
308082 3 -53.25645 39.51285 1.71795 1624
308097 3 -51.5385 41.2308 0.0 1624
308084 2 -49.82055 39.51285 1.71795 1624
308096 4 -53.25645 42.94875 1.71795 1624
308098 2 -49.82055 42.94875 1.71795 1624
308181 3 -51.5385 37.7949 3.4359 1624
308193 4 -54.9744 41.2308 3.4359 1624
308180 2 -53.25645 39.51285 5.15385 1624
308182 4 -49.82055 39.51285 5.15385 1624
308194 3 -53.25645 42.94875 5.15385 1624
308209 3 -51.5385 44.6667 3.4359 1624
308196 3 -49.82055 42.94875 5.15385 1624
308293 2 -51.5385 41.2308 6.8718 1624
310927 2 -48.1026 41.2308 3.4359 1624
