ITEM: TIMESTEP
0
ITEM: NUMBER OF ATOMS
14
ITEM: BOX BOUNDS pp pp pp
-120.2565 168.3591
-120.2565 168.3591
-120.2565 168.3591
ITEM: ATOMS id type x y z Cluster
137382 3 -97.92315 91.05135 -67.0 1900
137479 2 -99.6411 89.3334 -65.2821 1900
137466 4 -97.92315 87.61545 -63.5642 1900
137478 1 -101.35905 91.05135 -63.5642 1900
137493 2 -99.6411 92.7693 -65.2821 1900
137494 1 -97.92315 94.48725 -63.5642 1900
137577 1 -99.6411 89.3334 -61.8462 1900
137591 1 -99.6411 92.7693 -61.8462 1900
137578 3 -97.92315 91.05135 -60.1283 1900
140211 3 -96.2052 89.3334 -65.2821 1900
140212 1 -94.48725 91.05135 -63.5642 1900
140225 4 -96.2052 92.7693 -65.2821 1900
140309 2 -96.2052 89.3334 -61.8462 1900
140323 2 -96.2052 92.7693 -61.8462 1900
