ITEM: TIMESTEP
0
ITEM: NUMBER OF ATOMS
9
ITEM: BOX BOUNDS pp pp pp
-96.2052 134.68728
-120.2565 168.3591
-120.2565 168.3591
ITEM: ATOMS id type x y z Cluster
725186 2 37.10772 91.05135 -94.48725 0
725200 4 37.10772 94.48725 -94.48725 0
725297 3 35.73336 92.7693 -92.7693 0
727918 3 39.85644 91.05135 -94.48725 0
727931 3 38.48208 92.7693 -96.2052 0
727932 1 39.85644 94.48725 -94.48725 0
728015 2 38.48208 89.3334 -92.7693 0
728031 4 41.2308 92.7693 -92.7693 0
729219 3 38.48208 96.2052 -96.2052 0
