ITEM: TIMESTEP
0
ITEM: NUMBER OF ATOMS
14
ITEM: BOX BOUNDS pp pp pp
-120.2565 168.3591
-120.2565 168.3591
-120.2565 168.3591
ITEM: ATOMS id type x y z Cluster
309847 3 -51.5385 61.8462 13.7436 1629
309861 2 -51.5385 65.2821 13.7436 1629
309750 1 -49.82055 63.5642 12.0257 1629
309945 2 -51.5385 61.8462 17.1795 1629
309834 3 -49.82055 60.1283 15.4616 1629
309846 3 -53.25645 63.5642 15.4616 1629
309959 4 -51.5385 65.2821 17.1795 1629
309862 1 -49.82055 67.0 15.4616 1629
309946 1 -49.82055 63.5642 18.8974 1629
312579 2 -48.1026 61.8462 13.7436 1629
312593 2 -48.1026 65.2821 13.7436 1629
312677 3 -48.1026 61.8462 17.1795 1629
312580 2 -46.38465 63.5642 15.4616 1629
312691 3 -48.1026 65.2821 17.1795 1629
