ITEM: TIMESTEP
0
ITEM: NUMBER OF ATOMS
16
ITEM: BOX BOUNDS pp pp pp
-96.2052 134.68728
-120.2565 168.3591
-120.2565 168.3591
ITEM: ATOMS id type x y z Cluster
1010576 4 114.07188 -97.92315 97.92315 2
1010674 4 114.07188 -97.92315 101.35905 2
1010771 1 112.69752 -99.6411 103.077 2
1010758 3 114.07188 -101.35905 104.79495 2
1010772 1 114.07188 -97.92315 104.79495 2
1011864 3 114.07188 -94.48725 97.92315 2
1011961 3 112.69752 -96.2052 99.6411 2
1013308 1 116.8206 -97.92315 97.92315 2
1013406 1 116.8206 -97.92315 101.35905 2
1013490 1 116.8206 -101.35905 104.79495 2
1013505 1 118.19496 -99.6411 103.077 2
1013504 4 116.8206 -97.92315 104.79495 2
1013601 4 115.44624 -99.6411 106.5129 2
1014595 3 115.44624 -96.2052 96.2052 2
1014596 4 116.8206 -94.48725 97.92315 2
1014695 1 118.19496 -96.2052 99.6411 2
