ITEM: TIMESTEP
0
ITEM: NUMBER OF ATOMS
14
ITEM: BOX BOUNDS pp pp pp
-120.2565 168.3591
-120.2565 168.3591
-120.2565 168.3591
ITEM: ATOMS id type x y z Cluster
176370 3 -101.35905 135.71805 1.71795 1582
176385 3 -99.6411 137.436 0.0 1582
176372 2 -97.92315 135.71805 1.71795 1582
176384 4 -101.35905 139.15395 1.71795 1582
176386 2 -97.92315 139.15395 1.71795 1582
176469 3 -99.6411 134.0001 3.4359 1582
176481 4 -103.077 137.436 3.4359 1582
176468 2 -101.35905 135.71805 5.15385 1582
176470 4 -97.92315 135.71805 5.15385 1582
176482 3 -101.35905 139.15395 5.15385 1582
176497 3 -99.6411 140.8719 3.4359 1582
176484 3 -97.92315 139.15395 5.15385 1582
176581 2 -99.6411 137.436 6.8718 1582
179215 2 -96.2052 137.436 3.4359 1582
