ITEM: TIMESTEP
0
ITEM: NUMBER OF ATOMS
9
ITEM: BOX BOUNDS pp pp pp
-96.2052 134.68728
-120.2565 168.3591
-120.2565 168.3591
ITEM: ATOMS id type x y z Cluster
308308 1 -39.85644 46.38465 8.58975 1
309595 4 -41.2308 48.1026 6.8718 1
309596 3 -39.85644 49.82055 8.58975 1
311040 4 -37.10772 46.38465 8.58975 1
311137 4 -38.48208 44.6667 10.3077 1
312328 1 -37.10772 49.82055 8.58975 1
312329 4 -35.73336 48.1026 6.8718 1
312341 3 -38.48208 51.5385 6.8718 1
312425 2 -38.48208 48.1026 10.3077 1
