ITEM: TIMESTEP
0
ITEM: NUMBER OF ATOMS
16
ITEM: BOX BOUNDS pp pp pp
-96.2052 134.68728
-120.2565 168.3591
-120.2565 168.3591
ITEM: ATOMS id type x y z Cluster
308196 3 -39.85644 42.94875 5.15385 2
308210 4 -39.85644 46.38465 5.15385 2
308307 1 -41.2308 44.6667 6.8718 2
308294 3 -39.85644 42.94875 8.58975 2
309400 3 -39.85644 49.82055 1.71795 2
309497 3 -41.2308 48.1026 3.4359 2
309498 3 -39.85644 49.82055 5.15385 2
310928 4 -37.10772 42.94875 5.15385 2
310942 1 -37.10772 46.38465 5.15385 2
311025 4 -38.48208 41.2308 6.8718 2
311026 1 -37.10772 42.94875 8.58975 2
311041 1 -35.73336 44.6667 6.8718 2
312132 4 -37.10772 49.82055 1.71795 2
312230 3 -37.10772 49.82055 5.15385 2
312231 1 -35.73336 48.1026 3.4359 2
312243 3 -38.48208 51.5385 3.4359 2
