ITEM: TIMESTEP
0
ITEM: NUMBER OF ATOMS
36
ITEM: BOX BOUNDS pp pp pp
-120.2565 168.3591
-120.2565 168.3591
-120.2565 168.3591
ITEM: ATOMS id type x y z Cluster
122651 3 -103.077 58.4103 89.3334 173
122636 1 -104.79495 56.69235 91.05135 173
122735 3 -103.077 54.9744 92.7693 173
122638 2 -101.35905 56.69235 91.05135 173
122737 4 -99.6411 54.9744 92.7693 173
122640 4 -97.92315 56.69235 91.05135 173
122747 1 -106.5129 58.4103 92.7693 173
122751 2 -99.6411 58.4103 92.7693 173
122650 4 -104.79495 60.1283 91.05135 173
122763 4 -103.077 61.8462 92.7693 173
122652 2 -101.35905 60.1283 91.05135 173
122724 2 -97.92315 53.25645 94.48725 173
122734 4 -104.79495 56.69235 94.48725 173
122736 4 -101.35905 56.69235 94.48725 173
122748 3 -104.79495 60.1283 94.48725 173
122750 4 -101.35905 60.1283 94.48725 173
122752 2 -97.92315 60.1283 94.48725 173
122762 1 -104.79495 63.5642 94.48725 173
122764 2 -101.35905 63.5642 94.48725 173
122835 1 -99.6411 54.9744 96.2052 173
122836 3 -97.92315 56.69235 97.92315 173
122847 3 -103.077 58.4103 96.2052 173
122849 2 -99.6411 58.4103 96.2052 173
122859 2 -106.5129 61.8462 96.2052 173
122846 4 -104.79495 60.1283 97.92315 173
122848 4 -101.35905 60.1283 97.92315 173
122863 4 -99.6411 61.8462 96.2052 173
122860 2 -104.79495 63.5642 97.92315 173
122875 4 -103.077 65.2821 96.2052 173
122862 2 -101.35905 63.5642 97.92315 173
122959 1 -103.077 61.8462 99.6411 173
125469 4 -96.2052 54.9744 92.7693 173
125483 1 -96.2052 58.4103 92.7693 173
125470 1 -94.48725 56.69235 94.48725 173
125567 1 -96.2052 54.9744 96.2052 173
125581 2 -96.2052 58.4103 96.2052 173
