ITEM: TIMESTEP
0
ITEM: NUMBER OF ATOMS
14
ITEM: BOX BOUNDS pp pp pp
-120.2565 168.3591
-120.2565 168.3591
-120.2565 168.3591
ITEM: ATOMS id type x y z Cluster
504986 1 -15.4616 46.38465 -22.3334 2502
505070 3 -15.4616 42.94875 -18.8974 2502
505083 4 -17.1795 44.6667 -20.6154 2502
505085 2 -13.7436 44.6667 -20.6154 2502
505082 2 -18.8974 46.38465 -18.8974 2502
505086 3 -12.0257 46.38465 -18.8974 2502
505181 3 -17.1795 44.6667 -17.1795 2502
505183 4 -13.7436 44.6667 -17.1795 2502
505182 1 -15.4616 46.38465 -15.4616 2502
506371 2 -17.1795 48.1026 -20.6154 2502
506372 4 -15.4616 49.82055 -18.8974 2502
506373 2 -13.7436 48.1026 -20.6154 2502
506469 2 -17.1795 48.1026 -17.1795 2502
506471 3 -13.7436 48.1026 -17.1795 2502
