ITEM: TIMESTEP
0
ITEM: NUMBER OF ATOMS
9
ITEM: BOX BOUNDS pp pp pp
-96.2052 134.68728
-120.2565 168.3591
-120.2565 168.3591
ITEM: ATOMS id type x y z Cluster
472948 1 -1.37436 -1.71795 8.58975 1
474235 4 -2.74872 0.0 6.8718 1
474236 3 -1.37436 1.71795 8.58975 1
475680 4 1.37436 -1.71795 8.58975 1
475777 4 0.0 -3.4359 10.3077 1
476968 1 1.37436 1.71795 8.58975 1
476969 4 2.74872 0.0 6.8718 1
476981 3 0.0 3.4359 6.8718 1
477065 2 0.0 0.0 10.3077 1
