ITEM: TIMESTEP
0
ITEM: NUMBER OF ATOMS
9
ITEM: BOX BOUNDS pp pp pp
-96.2052 134.68728
-120.2565 168.3591
-120.2565 168.3591
ITEM: ATOMS id type x y z Cluster
845922 2 75.5898 -53.25645 97.92315 0
846033 3 74.21544 -51.5385 99.6411 0
846020 3 75.5898 -53.25645 101.35905 0
848654 3 78.33852 -53.25645 97.92315 0
848667 3 76.96416 -51.5385 96.2052 0
848751 2 76.96416 -54.9744 99.6411 0
848752 4 78.33852 -53.25645 101.35905 0
848767 4 79.71288 -51.5385 99.6411 0
848849 4 76.96416 -54.9744 103.077 0
