ITEM: TIMESTEP
0
ITEM: NUMBER OF ATOMS
16
ITEM: BOX BOUNDS pp pp pp
-96.2052 134.68728
-120.2565 168.3591
-120.2565 168.3591
ITEM: ATOMS id type x y z Cluster
615440 4 37.10772 -97.92315 97.92315 2
615538 4 37.10772 -97.92315 101.35905 2
615635 1 35.73336 -99.6411 103.077 2
615622 3 37.10772 -101.35905 104.79495 2
615636 1 37.10772 -97.92315 104.79495 2
616728 3 37.10772 -94.48725 97.92315 2
616825 3 35.73336 -96.2052 99.6411 2
618172 1 39.85644 -97.92315 97.92315 2
618270 1 39.85644 -97.92315 101.35905 2
618354 1 39.85644 -101.35905 104.79495 2
618369 1 41.2308 -99.6411 103.077 2
618368 4 39.85644 -97.92315 104.79495 2
618465 4 38.48208 -99.6411 106.5129 2
619459 3 38.48208 -96.2052 96.2052 2
619460 4 39.85644 -94.48725 97.92315 2
619559 1 41.2308 -96.2052 99.6411 2
