ITEM: TIMESTEP
0
ITEM: NUMBER OF ATOMS
14
ITEM: BOX BOUNDS pp pp pp
-120.2565 168.3591
-120.2565 168.3591
-120.2565 168.3591
ITEM: ATOMS id type x y z Cluster
978306 3 94.48725 159.7694 73.8718 1463
978403 2 92.7693 158.0514 75.5898 1463
978390 4 94.48725 156.3335 77.3078 1463
978402 4 91.05135 159.7694 77.3078 1463
978417 1 92.7693 161.4873 75.5898 1463
978418 4 94.48725 163.2052 77.3078 1463
978501 4 92.7693 158.0514 79.0257 1463
978515 4 92.7693 161.4873 79.0257 1463
978502 1 94.48725 159.7694 80.7436 1463
981135 2 96.2052 158.0514 75.5898 1463
981136 4 97.92315 159.7694 77.3078 1463
981149 3 96.2052 161.4873 75.5898 1463
981233 3 96.2052 158.0514 79.0257 1463
981247 2 96.2052 161.4873 79.0257 1463
