ITEM: TIMESTEP
0
ITEM: NUMBER OF ATOMS
16
ITEM: BOX BOUNDS pp pp pp
-96.2052 134.68728
-120.2565 168.3591
-120.2565 168.3591
ITEM: ATOMS id type x y z Cluster
121604 3 -78.33852 42.94875 101.35905 2
121618 4 -78.33852 46.38465 101.35905 2
121715 1 -79.71288 44.6667 103.077 2
121702 3 -78.33852 42.94875 104.79495 2
122808 3 -78.33852 49.82055 97.92315 2
122905 3 -79.71288 48.1026 99.6411 2
122906 3 -78.33852 49.82055 101.35905 2
124336 4 -75.5898 42.94875 101.35905 2
124350 1 -75.5898 46.38465 101.35905 2
124433 4 -76.96416 41.2308 103.077 2
124434 1 -75.5898 42.94875 104.79495 2
124449 1 -74.21544 44.6667 103.077 2
125540 4 -75.5898 49.82055 97.92315 2
125638 3 -75.5898 49.82055 101.35905 2
125639 1 -74.21544 48.1026 99.6411 2
125651 3 -76.96416 51.5385 99.6411 2
