ITEM: TIMESTEP
0
ITEM: NUMBER OF ATOMS
9
ITEM: BOX BOUNDS pp pp pp
-96.2052 134.68728
-120.2565 168.3591
-120.2565 168.3591
ITEM: ATOMS id type x y z Cluster
961170 2 75.5898 139.15395 -46.38465 0
961184 4 75.5898 142.58985 -46.38465 0
961281 3 74.21544 140.8719 -44.6667 0
963902 3 78.33852 139.15395 -46.38465 0
963915 3 76.96416 140.8719 -48.1026 0
963916 1 78.33852 142.58985 -46.38465 0
963999 2 76.96416 137.436 -44.6667 0
964015 4 79.71288 140.8719 -44.6667 0
965203 3 76.96416 144.3078 -48.1026 0
