ITEM: TIMESTEP
0
ITEM: NUMBER OF ATOMS
14
ITEM: BOX BOUNDS pp pp pp
-120.2565 168.3591
-120.2565 168.3591
-120.2565 168.3591
ITEM: ATOMS id type x y z Cluster
61487 1 -99.6411 -65.2821 158.0514 1776
61390 4 -97.92315 -63.5642 156.3335 1776
61501 2 -99.6411 -61.8462 158.0514 1776
61474 2 -97.92315 -67.0 159.7694 1776
61486 1 -101.35905 -63.5642 159.7694 1776
61585 2 -99.6411 -65.2821 161.4873 1776
61599 1 -99.6411 -61.8462 161.4873 1776
61502 1 -97.92315 -60.1283 159.7694 1776
61586 1 -97.92315 -63.5642 163.2052 1776
64219 4 -96.2052 -65.2821 158.0514 1776
64233 4 -96.2052 -61.8462 158.0514 1776
64220 4 -94.48725 -63.5642 159.7694 1776
64317 4 -96.2052 -65.2821 161.4873 1776
64331 3 -96.2052 -61.8462 161.4873 1776
