ITEM: TIMESTEP
0
ITEM: NUMBER OF ATOMS
9
ITEM: BOX BOUNDS pp pp pp
-57.72312 57.72312
-72.1539 72.1539
-72.1539 72.1539
ITEM: ATOMS id type x y z Cluster
11746 2 -39.85644 -53.25645 49.82055 0
11857 3 -41.2308 -51.5385 51.5385 0
11844 3 -39.85644 -53.25645 53.25645 0
14478 3 -37.10772 -53.25645 49.82055 0
14491 3 -38.48208 -51.5385 48.1026 0
14575 2 -38.48208 -54.9744 51.5385 0
14576 4 -37.10772 -53.25645 53.25645 0
14591 4 -35.73336 -51.5385 51.5385 0
14673 4 -38.48208 -54.9744 54.9744 0
