ITEM: TIMESTEP
0
ITEM: NUMBER OF ATOMS
16
ITEM: BOX BOUNDS pp pp pp
-96.2052 134.68728
-120.2565 168.3591
-120.2565 168.3591
ITEM: ATOMS id type x y z Cluster
61236 3 -78.33852 -53.25645 149.46165 2
61250 4 -78.33852 -49.82055 149.46165 2
61347 1 -79.71288 -51.5385 151.1796 2
61334 3 -78.33852 -53.25645 152.89755 2
62440 3 -78.33852 -46.38465 146.02575 2
62537 3 -79.71288 -48.1026 147.7437 2
62538 3 -78.33852 -46.38465 149.46165 2
63968 4 -75.5898 -53.25645 149.46165 2
63982 1 -75.5898 -49.82055 149.46165 2
64065 4 -76.96416 -54.9744 151.1796 2
64066 1 -75.5898 -53.25645 152.89755 2
64081 1 -74.21544 -51.5385 151.1796 2
65172 4 -75.5898 -46.38465 146.02575 2
65270 3 -75.5898 -46.38465 149.46165 2
65271 1 -74.21544 -48.1026 147.7437 2
65283 3 -76.96416 -44.6667 147.7437 2
