ITEM: TIMESTEP
0
ITEM: NUMBER OF ATOMS
45360
ITEM: BOX BOUNDS pp pp pp
-120.2565 168.3591
-120.2565 168.3591
-120.2565 168.3591
ITEM: ATOMS id type x y z Cluster
90 1 -111.6668 -97.92315 -118.5386 2169
174 3 -111.6668 -101.35905 -115.1026 2169
187 4 -113.3847 -99.6411 -116.8206 2169
189 2 -109.9488 -99.6411 -116.8206 2169
182 3 -97.92315 -101.35905 -115.1026 1849
186 2 -115.1026 -97.92315 -115.1026 2169
190 3 -108.2309 -97.92315 -115.1026 2169
279 2 -99.6411 -103.077 -113.3847 1849
266 4 -97.92315 -104.79495 -111.6668 1849
285 3 -113.3847 -99.6411 -113.3847 2169
287 4 -109.9488 -99.6411 -113.3847 2169
278 1 -101.35905 -101.35905 -111.6668 1849
293 2 -99.6411 -99.6411 -113.3847 1849
286 1 -111.6668 -97.92315 -111.6668 2169
294 1 -97.92315 -97.92315 -111.6668 1849
377 1 -99.6411 -103.077 -109.9488 1849
391 1 -99.6411 -99.6411 -109.9488 1849
378 3 -97.92315 -101.35905 -108.2309 1849
531 4 -99.6411 -113.3847 -103.077 583
434 4 -97.92315 -111.6668 -104.79495 583
543 3 -103.077 -109.9488 -103.077 583
545 1 -99.6411 -109.9488 -103.077 583
557 2 -103.077 -106.5129 -103.077 583
446 1 -101.35905 -108.2309 -104.79495 583
559 4 -99.6411 -106.5129 -103.077 583
518 2 -97.92315 -115.1026 -101.35905 583
530 1 -101.35905 -111.6668 -101.35905 583
629 3 -99.6411 -113.3847 -99.6411 583
641 2 -103.077 -109.9488 -99.6411 583
643 1 -99.6411 -109.9488 -99.6411 583
542 3 -104.79495 -108.2309 -101.35905 583
655 4 -103.077 -106.5129 -99.6411 583
657 4 -99.6411 -106.5129 -99.6411 583
546 2 -97.92315 -108.2309 -101.35905 583
558 2 -101.35905 -104.79495 -101.35905 583
630 2 -97.92315 -111.6668 -97.92315 583
642 3 -101.35905 -108.2309 -97.92315 583
754 3 -101.35905 -104.79495 -94.48725 1850
769 3 -99.6411 -103.077 -96.2052 1850
756 2 -97.92315 -104.79495 -94.48725 1850
768 4 -101.35905 -101.35905 -94.48725 1850
770 2 -97.92315 -101.35905 -94.48725 1850
853 3 -99.6411 -106.5129 -92.7693 1850
865 4 -103.077 -103.077 -92.7693 1850
852 2 -101.35905 -104.79495 -91.05135 1850
854 4 -97.92315 -104.79495 -91.05135 1850
866 3 -101.35905 -101.35905 -91.05135 1850
881 3 -99.6411 -99.6411 -92.7693 1850
868 3 -97.92315 -101.35905 -91.05135 1850
965 2 -99.6411 -103.077 -89.3334 1850
1119 1 -99.6411 -113.3847 -82.4616 1851
1022 4 -97.92315 -111.6668 -84.1795 1851
1133 2 -99.6411 -109.9488 -82.4616 1851
1141 3 -109.9488 -106.5129 -82.4616 1852
1106 2 -97.92315 -115.1026 -80.7436 1851
1118 1 -101.35905 -111.6668 -80.7436 1851
1217 2 -99.6411 -113.3847 -79.0257 1851
1225 2 -109.9488 -109.9488 -79.0257 1852
1231 1 -99.6411 -109.9488 -79.0257 1851
1126 3 -111.6668 -108.2309 -80.7436 1852
1237 2 -113.3847 -106.5129 -79.0257 1852
1128 3 -108.2309 -108.2309 -80.7436 1852
1241 2 -106.5129 -106.5129 -79.0257 1852
1134 1 -97.92315 -108.2309 -80.7436 1851
1140 2 -111.6668 -104.79495 -80.7436 1852
1253 2 -109.9488 -103.077 -79.0257 1852
1142 1 -108.2309 -104.79495 -80.7436 1852
1218 1 -97.92315 -111.6668 -77.3078 1851
1224 4 -111.6668 -108.2309 -77.3078 1852
1337 2 -109.9488 -106.5129 -75.5898 1852
1226 1 -108.2309 -108.2309 -77.3078 1852
1238 2 -111.6668 -104.79495 -77.3078 1852
1240 1 -108.2309 -104.79495 -77.3078 1852
1442 3 -97.92315 -80.7436 -118.5386 1853
1475 2 -113.3847 -96.2052 -116.8206 2169
1476 4 -111.6668 -94.48725 -115.1026 2169
1477 2 -109.9488 -96.2052 -116.8206 2169
1518 4 -111.6668 -84.1795 -115.1026 1854
1539 2 -99.6411 -82.4616 -116.8206 1853
1526 4 -97.92315 -84.1795 -115.1026 1853
1538 4 -101.35905 -80.7436 -115.1026 1853
1553 1 -99.6411 -79.0257 -116.8206 1853
1554 4 -97.92315 -77.3078 -115.1026 1853
1573 2 -113.3847 -96.2052 -113.3847 2169
1575 3 -109.9488 -96.2052 -113.3847 2169
1602 1 -111.6668 -87.61545 -111.6668 1854
1615 1 -113.3847 -85.8975 -113.3847 1854
1617 4 -109.9488 -85.8975 -113.3847 1854
1614 4 -115.1026 -84.1795 -111.6668 1854
1629 1 -113.3847 -82.4616 -113.3847 1854
1631 1 -109.9488 -82.4616 -113.3847 1854
1618 1 -108.2309 -84.1795 -111.6668 1854
1637 4 -99.6411 -82.4616 -113.3847 1853
1630 4 -111.6668 -80.7436 -111.6668 1854
1651 4 -99.6411 -79.0257 -113.3847 1853
1638 1 -97.92315 -80.7436 -111.6668 1853
1713 3 -113.3847 -85.8975 -109.9488 1854
1715 2 -109.9488 -85.8975 -109.9488 1854
1727 3 -113.3847 -82.4616 -109.9488 1854
1729 3 -109.9488 -82.4616 -109.9488 1854
1714 4 -111.6668 -84.1795 -108.2309 1854
1915 3 -103.077 -85.8975 -103.077 150
1900 1 -104.79495 -87.61545 -101.35905 150
1999 3 -103.077 -89.3334 -99.6411 150
1902 2 -101.35905 -87.61545 -101.35905 150
2001 4 -99.6411 -89.3334 -99.6411 150
1904 4 -97.92315 -87.61545 -101.35905 150
2011 1 -106.5129 -85.8975 -99.6411 150
2015 2 -99.6411 -85.8975 -99.6411 150
1914 4 -104.79495 -84.1795 -101.35905 150
2027 4 -103.077 -82.4616 -99.6411 150
1916 2 -101.35905 -84.1795 -101.35905 150
1988 2 -97.92315 -91.05135 -97.92315 150
1998 4 -104.79495 -87.61545 -97.92315 150
2000 4 -101.35905 -87.61545 -97.92315 150
2012 3 -104.79495 -84.1795 -97.92315 150
2014 4 -101.35905 -84.1795 -97.92315 150
2016 2 -97.92315 -84.1795 -97.92315 150
2026 1 -104.79495 -80.7436 -97.92315 150
2028 2 -101.35905 -80.7436 -97.92315 150
2062 4 -115.1026 -94.48725 -94.48725 592
2064 2 -111.6668 -94.48725 -94.48725 592
2076 1 -115.1026 -91.05135 -94.48725 592
2077 2 -113.3847 -92.7693 -96.2052 592
2078 4 -111.6668 -91.05135 -94.48725 592
2099 1 -99.6411 -89.3334 -96.2052 150
2100 3 -97.92315 -87.61545 -94.48725 150
2111 3 -103.077 -85.8975 -96.2052 150
2113 2 -99.6411 -85.8975 -96.2052 150
2123 2 -106.5129 -82.4616 -96.2052 150
2110 4 -104.79495 -84.1795 -94.48725 150
2112 4 -101.35905 -84.1795 -94.48725 150
2127 4 -99.6411 -82.4616 -96.2052 150
2124 2 -104.79495 -80.7436 -94.48725 150
2139 4 -103.077 -79.0257 -96.2052 150
2126 2 -101.35905 -80.7436 -94.48725 150
2160 1 -115.1026 -94.48725 -91.05135 592
2161 1 -113.3847 -96.2052 -92.7693 592
2162 2 -111.6668 -94.48725 -91.05135 592
2173 4 -116.8206 -92.7693 -92.7693 592
2174 3 -115.1026 -91.05135 -91.05135 592
2176 4 -111.6668 -91.05135 -91.05135 592
2177 1 -109.9488 -92.7693 -92.7693 592
2188 4 -115.1026 -87.61545 -91.05135 592
2189 1 -113.3847 -89.3334 -92.7693 592
2190 2 -111.6668 -87.61545 -91.05135 592
2223 1 -103.077 -82.4616 -92.7693 150
2272 1 -115.1026 -91.05135 -87.61545 592
2273 2 -113.3847 -92.7693 -89.3334 592
2274 2 -111.6668 -91.05135 -87.61545 592
2285 3 -116.8206 -89.3334 -89.3334 592
2286 4 -115.1026 -87.61545 -87.61545 592
2288 1 -111.6668 -87.61545 -87.61545 592
2289 3 -109.9488 -89.3334 -89.3334 592
2301 4 -113.3847 -85.8975 -89.3334 592
2385 3 -113.3847 -89.3334 -85.8975 592
2519 3 -99.6411 -82.4616 -82.4616 1855
2533 2 -99.6411 -79.0257 -82.4616 1855
2422 1 -97.92315 -80.7436 -84.1795 1855
2470 4 -111.6668 -91.05135 -80.7436 1856
2567 4 -113.3847 -92.7693 -79.0257 1856
2569 1 -109.9488 -92.7693 -79.0257 1856
2581 4 -113.3847 -89.3334 -79.0257 1856
2583 3 -109.9488 -89.3334 -79.0257 1856
2617 2 -99.6411 -82.4616 -79.0257 1855
2506 3 -97.92315 -84.1795 -80.7436 1855
2518 3 -101.35905 -80.7436 -80.7436 1855
2631 4 -99.6411 -79.0257 -79.0257 1855
2534 1 -97.92315 -77.3078 -80.7436 1855
2554 2 -111.6668 -94.48725 -77.3078 1856
2566 2 -115.1026 -91.05135 -77.3078 1856
2665 3 -113.3847 -92.7693 -75.5898 1856
2667 1 -109.9488 -92.7693 -75.5898 1856
2570 1 -108.2309 -91.05135 -77.3078 1856
2582 4 -111.6668 -87.61545 -77.3078 1856
2679 2 -113.3847 -89.3334 -75.5898 1856
2681 2 -109.9488 -89.3334 -75.5898 1856
2618 1 -97.92315 -80.7436 -77.3078 1855
2666 2 -111.6668 -91.05135 -73.8718 1856
3011 3 -96.2052 -103.077 -113.3847 1849
3012 1 -94.48725 -101.35905 -111.6668 1849
3025 4 -96.2052 -99.6411 -113.3847 1849
3109 2 -96.2052 -103.077 -109.9488 1849
3123 2 -96.2052 -99.6411 -109.9488 1849
3263 3 -96.2052 -113.3847 -103.077 583
3277 4 -96.2052 -109.9488 -103.077 583
3264 3 -94.48725 -111.6668 -101.35905 583
3361 2 -96.2052 -113.3847 -99.6411 583
3375 2 -96.2052 -109.9488 -99.6411 583
3599 2 -96.2052 -103.077 -92.7693 1850
3851 4 -96.2052 -113.3847 -82.4616 1851
3865 4 -96.2052 -109.9488 -82.4616 1851
3852 4 -94.48725 -111.6668 -80.7436 1851
3949 4 -96.2052 -113.3847 -79.0257 1851
3963 3 -96.2052 -109.9488 -79.0257 1851
4271 2 -96.2052 -82.4616 -116.8206 1853
4272 4 -94.48725 -80.7436 -115.1026 1853
4285 3 -96.2052 -79.0257 -116.8206 1853
4369 3 -96.2052 -82.4616 -113.3847 1853
4383 2 -96.2052 -79.0257 -113.3847 1853
4733 4 -96.2052 -89.3334 -99.6411 150
4747 1 -96.2052 -85.8975 -99.6411 150
4734 1 -94.48725 -87.61545 -97.92315 150
4831 1 -96.2052 -89.3334 -96.2052 150
4845 2 -96.2052 -85.8975 -96.2052 150
5251 2 -96.2052 -82.4616 -82.4616 1855
5265 2 -96.2052 -79.0257 -82.4616 1855
5349 3 -96.2052 -82.4616 -79.0257 1855
5252 2 -94.48725 -80.7436 -80.7436 1855
5363 3 -96.2052 -79.0257 -79.0257 1855
5578 1 -111.6668 -97.92315 -70.436 1848
5662 3 -111.6668 -101.35905 -67.0 1848
5675 4 -113.3847 -99.6411 -68.718 1848
5677 2 -109.9488 -99.6411 -68.718 1848
5670 3 -97.92315 -101.35905 -67.0 1858
5674 2 -115.1026 -97.92315 -67.0 1848
5678 3 -108.2309 -97.92315 -67.0 1848
5767 2 -99.6411 -103.077 -65.2821 1858
5754 4 -97.92315 -104.79495 -63.5642 1858
5773 3 -113.3847 -99.6411 -65.2821 1848
5775 4 -109.9488 -99.6411 -65.2821 1848
5766 1 -101.35905 -101.35905 -63.5642 1858
5781 2 -99.6411 -99.6411 -65.2821 1858
5774 1 -111.6668 -97.92315 -63.5642 1848
5782 1 -97.92315 -97.92315 -63.5642 1858
5865 1 -99.6411 -103.077 -61.8462 1858
5879 1 -99.6411 -99.6411 -61.8462 1858
5866 3 -97.92315 -101.35905 -60.1283 1858
6019 4 -99.6411 -113.3847 -54.9744 605
5922 4 -97.92315 -111.6668 -56.69235 605
6031 3 -103.077 -109.9488 -54.9744 605
6033 1 -99.6411 -109.9488 -54.9744 605
6045 2 -103.077 -106.5129 -54.9744 605
5934 1 -101.35905 -108.2309 -56.69235 605
6047 4 -99.6411 -106.5129 -54.9744 605
6006 2 -97.92315 -115.1026 -53.25645 605
6018 1 -101.35905 -111.6668 -53.25645 605
6117 3 -99.6411 -113.3847 -51.5385 605
6129 2 -103.077 -109.9488 -51.5385 605
6131 1 -99.6411 -109.9488 -51.5385 605
6030 3 -104.79495 -108.2309 -53.25645 605
6143 4 -103.077 -106.5129 -51.5385 605
6145 4 -99.6411 -106.5129 -51.5385 605
6034 2 -97.92315 -108.2309 -53.25645 605
6046 2 -101.35905 -104.79495 -53.25645 605
6118 2 -97.92315 -111.6668 -49.82055 605
6130 3 -101.35905 -108.2309 -49.82055 605
6242 3 -101.35905 -104.79495 -46.38465 1859
6257 3 -99.6411 -103.077 -48.1026 1859
6244 2 -97.92315 -104.79495 -46.38465 1859
6256 4 -101.35905 -101.35905 -46.38465 1859
6258 2 -97.92315 -101.35905 -46.38465 1859
6341 3 -99.6411 -106.5129 -44.6667 1859
6353 4 -103.077 -103.077 -44.6667 1859
6340 2 -101.35905 -104.79495 -42.94875 1859
6342 4 -97.92315 -104.79495 -42.94875 1859
6354 3 -101.35905 -101.35905 -42.94875 1859
6369 3 -99.6411 -99.6411 -44.6667 1859
6356 3 -97.92315 -101.35905 -42.94875 1859
6453 2 -99.6411 -103.077 -41.2308 1859
6607 1 -99.6411 -113.3847 -34.359 1860
6510 4 -97.92315 -111.6668 -36.0769 1860
6621 2 -99.6411 -109.9488 -34.359 1860
6629 3 -109.9488 -106.5129 -34.359 1861
6594 2 -97.92315 -115.1026 -32.641 1860
6606 1 -101.35905 -111.6668 -32.641 1860
6705 2 -99.6411 -113.3847 -30.9231 1860
6713 2 -109.9488 -109.9488 -30.9231 1861
6719 1 -99.6411 -109.9488 -30.9231 1860
6614 3 -111.6668 -108.2309 -32.641 1861
6725 2 -113.3847 -106.5129 -30.9231 1861
6616 3 -108.2309 -108.2309 -32.641 1861
6729 2 -106.5129 -106.5129 -30.9231 1861
6622 1 -97.92315 -108.2309 -32.641 1860
6628 2 -111.6668 -104.79495 -32.641 1861
6741 2 -109.9488 -103.077 -30.9231 1861
6630 1 -108.2309 -104.79495 -32.641 1861
6706 1 -97.92315 -111.6668 -29.2052 1860
6712 4 -111.6668 -108.2309 -29.2052 1861
6825 2 -109.9488 -106.5129 -27.4872 1861
6714 1 -108.2309 -108.2309 -29.2052 1861
6726 2 -111.6668 -104.79495 -29.2052 1861
6728 1 -108.2309 -104.79495 -29.2052 1861
6930 3 -97.92315 -80.7436 -70.436 1862
6963 2 -113.3847 -96.2052 -68.718 1848
6964 4 -111.6668 -94.48725 -67.0 1848
6965 2 -109.9488 -96.2052 -68.718 1848
7006 4 -111.6668 -84.1795 -67.0 1863
7027 2 -99.6411 -82.4616 -68.718 1862
7014 4 -97.92315 -84.1795 -67.0 1862
7026 4 -101.35905 -80.7436 -67.0 1862
7041 1 -99.6411 -79.0257 -68.718 1862
7042 4 -97.92315 -77.3078 -67.0 1862
7061 2 -113.3847 -96.2052 -65.2821 1848
7063 3 -109.9488 -96.2052 -65.2821 1848
7090 1 -111.6668 -87.61545 -63.5642 1863
7103 1 -113.3847 -85.8975 -65.2821 1863
7105 4 -109.9488 -85.8975 -65.2821 1863
7102 4 -115.1026 -84.1795 -63.5642 1863
7117 1 -113.3847 -82.4616 -65.2821 1863
7119 1 -109.9488 -82.4616 -65.2821 1863
7106 1 -108.2309 -84.1795 -63.5642 1863
7125 4 -99.6411 -82.4616 -65.2821 1862
7118 4 -111.6668 -80.7436 -63.5642 1863
7139 4 -99.6411 -79.0257 -65.2821 1862
7126 1 -97.92315 -80.7436 -63.5642 1862
7201 3 -113.3847 -85.8975 -61.8462 1863
7203 2 -109.9488 -85.8975 -61.8462 1863
7215 3 -113.3847 -82.4616 -61.8462 1863
7217 3 -109.9488 -82.4616 -61.8462 1863
7202 4 -111.6668 -84.1795 -60.1283 1863
7403 3 -103.077 -85.8975 -54.9744 162
7388 1 -104.79495 -87.61545 -53.25645 162
7487 3 -103.077 -89.3334 -51.5385 162
7390 2 -101.35905 -87.61545 -53.25645 162
7489 4 -99.6411 -89.3334 -51.5385 162
7392 4 -97.92315 -87.61545 -53.25645 162
7499 1 -106.5129 -85.8975 -51.5385 162
7503 2 -99.6411 -85.8975 -51.5385 162
7402 4 -104.79495 -84.1795 -53.25645 162
7515 4 -103.077 -82.4616 -51.5385 162
7404 2 -101.35905 -84.1795 -53.25645 162
7476 2 -97.92315 -91.05135 -49.82055 162
7486 4 -104.79495 -87.61545 -49.82055 162
7488 4 -101.35905 -87.61545 -49.82055 162
7500 3 -104.79495 -84.1795 -49.82055 162
7502 4 -101.35905 -84.1795 -49.82055 162
7504 2 -97.92315 -84.1795 -49.82055 162
7514 1 -104.79495 -80.7436 -49.82055 162
7516 2 -101.35905 -80.7436 -49.82055 162
7550 4 -115.1026 -94.48725 -46.38465 559
7552 2 -111.6668 -94.48725 -46.38465 559
7564 1 -115.1026 -91.05135 -46.38465 559
7565 2 -113.3847 -92.7693 -48.1026 559
7566 4 -111.6668 -91.05135 -46.38465 559
7587 1 -99.6411 -89.3334 -48.1026 162
7588 3 -97.92315 -87.61545 -46.38465 162
7599 3 -103.077 -85.8975 -48.1026 162
7601 2 -99.6411 -85.8975 -48.1026 162
7611 2 -106.5129 -82.4616 -48.1026 162
7598 4 -104.79495 -84.1795 -46.38465 162
7600 4 -101.35905 -84.1795 -46.38465 162
7615 4 -99.6411 -82.4616 -48.1026 162
7612 2 -104.79495 -80.7436 -46.38465 162
7627 4 -103.077 -79.0257 -48.1026 162
7614 2 -101.35905 -80.7436 -46.38465 162
7648 1 -115.1026 -94.48725 -42.94875 559
7649 1 -113.3847 -96.2052 -44.6667 559
7650 2 -111.6668 -94.48725 -42.94875 559
7661 4 -116.8206 -92.7693 -44.6667 559
7662 3 -115.1026 -91.05135 -42.94875 559
7664 4 -111.6668 -91.05135 -42.94875 559
7665 1 -109.9488 -92.7693 -44.6667 559
7676 4 -115.1026 -87.61545 -42.94875 559
7677 1 -113.3847 -89.3334 -44.6667 559
7678 2 -111.6668 -87.61545 -42.94875 559
7711 1 -103.077 -82.4616 -44.6667 162
7760 1 -115.1026 -91.05135 -39.51285 559
7761 2 -113.3847 -92.7693 -41.2308 559
7762 2 -111.6668 -91.05135 -39.51285 559
7773 3 -116.8206 -89.3334 -41.2308 559
7774 4 -115.1026 -87.61545 -39.51285 559
7776 1 -111.6668 -87.61545 -39.51285 559
7777 3 -109.9488 -89.3334 -41.2308 559
7789 4 -113.3847 -85.8975 -41.2308 559
7873 3 -113.3847 -89.3334 -37.7949 559
8007 3 -99.6411 -82.4616 -34.359 1864
8021 2 -99.6411 -79.0257 -34.359 1864
7910 1 -97.92315 -80.7436 -36.0769 1864
7958 4 -111.6668 -91.05135 -32.641 1839
8055 4 -113.3847 -92.7693 -30.9231 1839
8057 1 -109.9488 -92.7693 -30.9231 1839
8069 4 -113.3847 -89.3334 -30.9231 1839
8071 3 -109.9488 -89.3334 -30.9231 1839
8105 2 -99.6411 -82.4616 -30.9231 1864
7994 3 -97.92315 -84.1795 -32.641 1864
8006 3 -101.35905 -80.7436 -32.641 1864
8119 4 -99.6411 -79.0257 -30.9231 1864
8022 1 -97.92315 -77.3078 -32.641 1864
8042 2 -111.6668 -94.48725 -29.2052 1839
8054 2 -115.1026 -91.05135 -29.2052 1839
8153 3 -113.3847 -92.7693 -27.4872 1839
8155 1 -109.9488 -92.7693 -27.4872 1839
8058 1 -108.2309 -91.05135 -29.2052 1839
8070 4 -111.6668 -87.61545 -29.2052 1839
8167 2 -113.3847 -89.3334 -27.4872 1839
8169 2 -109.9488 -89.3334 -27.4872 1839
8106 1 -97.92315 -80.7436 -29.2052 1864
8154 2 -111.6668 -91.05135 -25.7692 1839
8499 3 -96.2052 -103.077 -65.2821 1858
8500 1 -94.48725 -101.35905 -63.5642 1858
8513 4 -96.2052 -99.6411 -65.2821 1858
8597 2 -96.2052 -103.077 -61.8462 1858
8611 2 -96.2052 -99.6411 -61.8462 1858
8751 3 -96.2052 -113.3847 -54.9744 605
8765 4 -96.2052 -109.9488 -54.9744 605
8752 3 -94.48725 -111.6668 -53.25645 605
8849 2 -96.2052 -113.3847 -51.5385 605
8863 2 -96.2052 -109.9488 -51.5385 605
9087 2 -96.2052 -103.077 -44.6667 1859
9339 4 -96.2052 -113.3847 -34.359 1860
9353 4 -96.2052 -109.9488 -34.359 1860
9340 4 -94.48725 -111.6668 -32.641 1860
9437 4 -96.2052 -113.3847 -30.9231 1860
9451 3 -96.2052 -109.9488 -30.9231 1860
9759 2 -96.2052 -82.4616 -68.718 1862
9760 4 -94.48725 -80.7436 -67.0 1862
9773 3 -96.2052 -79.0257 -68.718 1862
9857 3 -96.2052 -82.4616 -65.2821 1862
9871 2 -96.2052 -79.0257 -65.2821 1862
10221 4 -96.2052 -89.3334 -51.5385 162
10235 1 -96.2052 -85.8975 -51.5385 162
10222 1 -94.48725 -87.61545 -49.82055 162
10319 1 -96.2052 -89.3334 -48.1026 162
10333 2 -96.2052 -85.8975 -48.1026 162
10739 2 -96.2052 -82.4616 -34.359 1864
10753 2 -96.2052 -79.0257 -34.359 1864
10837 3 -96.2052 -82.4616 -30.9231 1864
10740 2 -94.48725 -80.7436 -32.641 1864
10851 3 -96.2052 -79.0257 -30.9231 1864
11066 1 -111.6668 -97.92315 -22.3334 1831
11150 3 -111.6668 -101.35905 -18.8974 1831
11163 4 -113.3847 -99.6411 -20.6154 1831
11165 2 -109.9488 -99.6411 -20.6154 1831
11158 3 -97.92315 -101.35905 -18.8974 1832
11162 2 -115.1026 -97.92315 -18.8974 1831
11166 3 -108.2309 -97.92315 -18.8974 1831
11255 2 -99.6411 -103.077 -17.1795 1832
11242 4 -97.92315 -104.79495 -15.4616 1832
11261 3 -113.3847 -99.6411 -17.1795 1831
11263 4 -109.9488 -99.6411 -17.1795 1831
11254 1 -101.35905 -101.35905 -15.4616 1832
11269 2 -99.6411 -99.6411 -17.1795 1832
11262 1 -111.6668 -97.92315 -15.4616 1831
11270 1 -97.92315 -97.92315 -15.4616 1832
11353 1 -99.6411 -103.077 -13.7436 1832
11367 1 -99.6411 -99.6411 -13.7436 1832
11354 3 -97.92315 -101.35905 -12.0257 1832
11507 4 -99.6411 -113.3847 -6.8718 569
11410 4 -97.92315 -111.6668 -8.58975 569
11519 3 -103.077 -109.9488 -6.8718 569
11521 1 -99.6411 -109.9488 -6.8718 569
11533 2 -103.077 -106.5129 -6.8718 569
11422 1 -101.35905 -108.2309 -8.58975 569
11535 4 -99.6411 -106.5129 -6.8718 569
11494 2 -97.92315 -115.1026 -5.15385 569
11506 1 -101.35905 -111.6668 -5.15385 569
11605 3 -99.6411 -113.3847 -3.4359 569
11617 2 -103.077 -109.9488 -3.4359 569
11619 1 -99.6411 -109.9488 -3.4359 569
11518 3 -104.79495 -108.2309 -5.15385 569
11631 4 -103.077 -106.5129 -3.4359 569
11633 4 -99.6411 -106.5129 -3.4359 569
11522 2 -97.92315 -108.2309 -5.15385 569
11534 2 -101.35905 -104.79495 -5.15385 569
11606 2 -97.92315 -111.6668 -1.71795 569
11618 3 -101.35905 -108.2309 -1.71795 569
11730 3 -101.35905 -104.79495 1.71795 1833
11745 3 -99.6411 -103.077 0.0 1833
11732 2 -97.92315 -104.79495 1.71795 1833
11744 4 -101.35905 -101.35905 1.71795 1833
11746 2 -97.92315 -101.35905 1.71795 1833
11829 3 -99.6411 -106.5129 3.4359 1833
11841 4 -103.077 -103.077 3.4359 1833
11828 2 -101.35905 -104.79495 5.15385 1833
11830 4 -97.92315 -104.79495 5.15385 1833
11842 3 -101.35905 -101.35905 5.15385 1833
11857 3 -99.6411 -99.6411 3.4359 1833
11844 3 -97.92315 -101.35905 5.15385 1833
11941 2 -99.6411 -103.077 6.8718 1833
12095 1 -99.6411 -113.3847 13.7436 1834
11998 4 -97.92315 -111.6668 12.0257 1834
12109 2 -99.6411 -109.9488 13.7436 1834
12117 3 -109.9488 -106.5129 13.7436 1835
12082 2 -97.92315 -115.1026 15.4616 1834
12094 1 -101.35905 -111.6668 15.4616 1834
12193 2 -99.6411 -113.3847 17.1795 1834
12201 2 -109.9488 -109.9488 17.1795 1835
12207 1 -99.6411 -109.9488 17.1795 1834
12102 3 -111.6668 -108.2309 15.4616 1835
12213 2 -113.3847 -106.5129 17.1795 1835
12104 3 -108.2309 -108.2309 15.4616 1835
12217 2 -106.5129 -106.5129 17.1795 1835
12110 1 -97.92315 -108.2309 15.4616 1834
12116 2 -111.6668 -104.79495 15.4616 1835
12229 2 -109.9488 -103.077 17.1795 1835
12118 1 -108.2309 -104.79495 15.4616 1835
12194 1 -97.92315 -111.6668 18.8974 1834
12200 4 -111.6668 -108.2309 18.8974 1835
12313 2 -109.9488 -106.5129 20.6154 1835
12202 1 -108.2309 -108.2309 18.8974 1835
12214 2 -111.6668 -104.79495 18.8974 1835
12216 1 -108.2309 -104.79495 18.8974 1835
12418 3 -97.92315 -80.7436 -22.3334 1836
12451 2 -113.3847 -96.2052 -20.6154 1831
12452 4 -111.6668 -94.48725 -18.8974 1831
12453 2 -109.9488 -96.2052 -20.6154 1831
12494 4 -111.6668 -84.1795 -18.8974 1837
12515 2 -99.6411 -82.4616 -20.6154 1836
12502 4 -97.92315 -84.1795 -18.8974 1836
12514 4 -101.35905 -80.7436 -18.8974 1836
12529 1 -99.6411 -79.0257 -20.6154 1836
12530 4 -97.92315 -77.3078 -18.8974 1836
12549 2 -113.3847 -96.2052 -17.1795 1831
12551 3 -109.9488 -96.2052 -17.1795 1831
12578 1 -111.6668 -87.61545 -15.4616 1837
12591 1 -113.3847 -85.8975 -17.1795 1837
12593 4 -109.9488 -85.8975 -17.1795 1837
12590 4 -115.1026 -84.1795 -15.4616 1837
12605 1 -113.3847 -82.4616 -17.1795 1837
12607 1 -109.9488 -82.4616 -17.1795 1837
12594 1 -108.2309 -84.1795 -15.4616 1837
12613 4 -99.6411 -82.4616 -17.1795 1836
12606 4 -111.6668 -80.7436 -15.4616 1837
12627 4 -99.6411 -79.0257 -17.1795 1836
12614 1 -97.92315 -80.7436 -15.4616 1836
12689 3 -113.3847 -85.8975 -13.7436 1837
12691 2 -109.9488 -85.8975 -13.7436 1837
12703 3 -113.3847 -82.4616 -13.7436 1837
12705 3 -109.9488 -82.4616 -13.7436 1837
12690 4 -111.6668 -84.1795 -12.0257 1837
12891 3 -103.077 -85.8975 -6.8718 116
12876 1 -104.79495 -87.61545 -5.15385 116
12975 3 -103.077 -89.3334 -3.4359 116
12878 2 -101.35905 -87.61545 -5.15385 116
12977 4 -99.6411 -89.3334 -3.4359 116
12880 4 -97.92315 -87.61545 -5.15385 116
12987 1 -106.5129 -85.8975 -3.4359 116
12991 2 -99.6411 -85.8975 -3.4359 116
12890 4 -104.79495 -84.1795 -5.15385 116
13003 4 -103.077 -82.4616 -3.4359 116
12892 2 -101.35905 -84.1795 -5.15385 116
12964 2 -97.92315 -91.05135 -1.71795 116
12974 4 -104.79495 -87.61545 -1.71795 116
12976 4 -101.35905 -87.61545 -1.71795 116
12988 3 -104.79495 -84.1795 -1.71795 116
12990 4 -101.35905 -84.1795 -1.71795 116
12992 2 -97.92315 -84.1795 -1.71795 116
13002 1 -104.79495 -80.7436 -1.71795 116
13004 2 -101.35905 -80.7436 -1.71795 116
13038 4 -115.1026 -94.48725 1.71795 578
13040 2 -111.6668 -94.48725 1.71795 578
13052 1 -115.1026 -91.05135 1.71795 578
13053 2 -113.3847 -92.7693 0.0 578
13054 4 -111.6668 -91.05135 1.71795 578
13075 1 -99.6411 -89.3334 0.0 116
13076 3 -97.92315 -87.61545 1.71795 116
13087 3 -103.077 -85.8975 0.0 116
13089 2 -99.6411 -85.8975 0.0 116
13099 2 -106.5129 -82.4616 0.0 116
13086 4 -104.79495 -84.1795 1.71795 116
13088 4 -101.35905 -84.1795 1.71795 116
13103 4 -99.6411 -82.4616 0.0 116
13100 2 -104.79495 -80.7436 1.71795 116
13115 4 -103.077 -79.0257 0.0 116
13102 2 -101.35905 -80.7436 1.71795 116
13136 1 -115.1026 -94.48725 5.15385 578
13137 1 -113.3847 -96.2052 3.4359 578
13138 2 -111.6668 -94.48725 5.15385 578
13149 4 -116.8206 -92.7693 3.4359 578
13150 3 -115.1026 -91.05135 5.15385 578
13152 4 -111.6668 -91.05135 5.15385 578
13153 1 -109.9488 -92.7693 3.4359 578
13164 4 -115.1026 -87.61545 5.15385 578
13165 1 -113.3847 -89.3334 3.4359 578
13166 2 -111.6668 -87.61545 5.15385 578
13199 1 -103.077 -82.4616 3.4359 116
13248 1 -115.1026 -91.05135 8.58975 578
13249 2 -113.3847 -92.7693 6.8718 578
13250 2 -111.6668 -91.05135 8.58975 578
13261 3 -116.8206 -89.3334 6.8718 578
13262 4 -115.1026 -87.61545 8.58975 578
13264 1 -111.6668 -87.61545 8.58975 578
13265 3 -109.9488 -89.3334 6.8718 578
13277 4 -113.3847 -85.8975 6.8718 578
13361 3 -113.3847 -89.3334 10.3077 578
13495 3 -99.6411 -82.4616 13.7436 1838
13509 2 -99.6411 -79.0257 13.7436 1838
13398 1 -97.92315 -80.7436 12.0257 1838
13446 4 -111.6668 -91.05135 15.4616 1830
13543 4 -113.3847 -92.7693 17.1795 1830
13545 1 -109.9488 -92.7693 17.1795 1830
13557 4 -113.3847 -89.3334 17.1795 1830
13559 3 -109.9488 -89.3334 17.1795 1830
13593 2 -99.6411 -82.4616 17.1795 1838
13482 3 -97.92315 -84.1795 15.4616 1838
13494 3 -101.35905 -80.7436 15.4616 1838
13607 4 -99.6411 -79.0257 17.1795 1838
13510 1 -97.92315 -77.3078 15.4616 1838
13530 2 -111.6668 -94.48725 18.8974 1830
13542 2 -115.1026 -91.05135 18.8974 1830
13641 3 -113.3847 -92.7693 20.6154 1830
13643 1 -109.9488 -92.7693 20.6154 1830
13546 1 -108.2309 -91.05135 18.8974 1830
13558 4 -111.6668 -87.61545 18.8974 1830
13655 2 -113.3847 -89.3334 20.6154 1830
13657 2 -109.9488 -89.3334 20.6154 1830
13594 1 -97.92315 -80.7436 18.8974 1838
13642 2 -111.6668 -91.05135 22.3334 1830
13987 3 -96.2052 -103.077 -17.1795 1832
13988 1 -94.48725 -101.35905 -15.4616 1832
14001 4 -96.2052 -99.6411 -17.1795 1832
14085 2 -96.2052 -103.077 -13.7436 1832
14099 2 -96.2052 -99.6411 -13.7436 1832
14239 3 -96.2052 -113.3847 -6.8718 569
14253 4 -96.2052 -109.9488 -6.8718 569
14240 3 -94.48725 -111.6668 -5.15385 569
14337 2 -96.2052 -113.3847 -3.4359 569
14351 2 -96.2052 -109.9488 -3.4359 569
14575 2 -96.2052 -103.077 3.4359 1833
14827 4 -96.2052 -113.3847 13.7436 1834
14841 4 -96.2052 -109.9488 13.7436 1834
14828 4 -94.48725 -111.6668 15.4616 1834
14925 4 -96.2052 -113.3847 17.1795 1834
14939 3 -96.2052 -109.9488 17.1795 1834
15247 2 -96.2052 -82.4616 -20.6154 1836
15248 4 -94.48725 -80.7436 -18.8974 1836
15261 3 -96.2052 -79.0257 -20.6154 1836
15345 3 -96.2052 -82.4616 -17.1795 1836
15359 2 -96.2052 -79.0257 -17.1795 1836
15709 4 -96.2052 -89.3334 -3.4359 116
15723 1 -96.2052 -85.8975 -3.4359 116
15710 1 -94.48725 -87.61545 -1.71795 116
15807 1 -96.2052 -89.3334 0.0 116
15821 2 -96.2052 -85.8975 0.0 116
16227 2 -96.2052 -82.4616 13.7436 1838
16241 2 -96.2052 -79.0257 13.7436 1838
16325 3 -96.2052 -82.4616 17.1795 1838
16228 2 -94.48725 -80.7436 15.4616 1838
16339 3 -96.2052 -79.0257 17.1795 1838
16554 1 -111.6668 -97.92315 25.7692 1840
16638 3 -111.6668 -101.35905 29.2052 1840
16651 4 -113.3847 -99.6411 27.4872 1840
16653 2 -109.9488 -99.6411 27.4872 1840
16646 3 -97.92315 -101.35905 29.2052 1841
16650 2 -115.1026 -97.92315 29.2052 1840
16654 3 -108.2309 -97.92315 29.2052 1840
16743 2 -99.6411 -103.077 30.9231 1841
16730 4 -97.92315 -104.79495 32.641 1841
16749 3 -113.3847 -99.6411 30.9231 1840
16751 4 -109.9488 -99.6411 30.9231 1840
16742 1 -101.35905 -101.35905 32.641 1841
16757 2 -99.6411 -99.6411 30.9231 1841
16750 1 -111.6668 -97.92315 32.641 1840
16758 1 -97.92315 -97.92315 32.641 1841
16841 1 -99.6411 -103.077 34.359 1841
16855 1 -99.6411 -99.6411 34.359 1841
16842 3 -97.92315 -101.35905 36.0769 1841
16995 4 -99.6411 -113.3847 41.2308 641
16898 4 -97.92315 -111.6668 39.51285 641
17007 3 -103.077 -109.9488 41.2308 641
17009 1 -99.6411 -109.9488 41.2308 641
17021 2 -103.077 -106.5129 41.2308 641
16910 1 -101.35905 -108.2309 39.51285 641
17023 4 -99.6411 -106.5129 41.2308 641
16982 2 -97.92315 -115.1026 42.94875 641
16994 1 -101.35905 -111.6668 42.94875 641
17093 3 -99.6411 -113.3847 44.6667 641
17105 2 -103.077 -109.9488 44.6667 641
17107 1 -99.6411 -109.9488 44.6667 641
17006 3 -104.79495 -108.2309 42.94875 641
17119 4 -103.077 -106.5129 44.6667 641
17121 4 -99.6411 -106.5129 44.6667 641
17010 2 -97.92315 -108.2309 42.94875 641
17022 2 -101.35905 -104.79495 42.94875 641
17094 2 -97.92315 -111.6668 46.38465 641
17106 3 -101.35905 -108.2309 46.38465 641
17218 3 -101.35905 -104.79495 49.82055 1842
17233 3 -99.6411 -103.077 48.1026 1842
17220 2 -97.92315 -104.79495 49.82055 1842
17232 4 -101.35905 -101.35905 49.82055 1842
17234 2 -97.92315 -101.35905 49.82055 1842
17317 3 -99.6411 -106.5129 51.5385 1842
17329 4 -103.077 -103.077 51.5385 1842
17316 2 -101.35905 -104.79495 53.25645 1842
17318 4 -97.92315 -104.79495 53.25645 1842
17330 3 -101.35905 -101.35905 53.25645 1842
17345 3 -99.6411 -99.6411 51.5385 1842
17332 3 -97.92315 -101.35905 53.25645 1842
17429 2 -99.6411 -103.077 54.9744 1842
17583 1 -99.6411 -113.3847 61.8462 1843
17486 4 -97.92315 -111.6668 60.1283 1843
17597 2 -99.6411 -109.9488 61.8462 1843
17605 3 -109.9488 -106.5129 61.8462 1844
17570 2 -97.92315 -115.1026 63.5642 1843
17582 1 -101.35905 -111.6668 63.5642 1843
17681 2 -99.6411 -113.3847 65.2821 1843
17689 2 -109.9488 -109.9488 65.2821 1844
17695 1 -99.6411 -109.9488 65.2821 1843
17590 3 -111.6668 -108.2309 63.5642 1844
17701 2 -113.3847 -106.5129 65.2821 1844
17592 3 -108.2309 -108.2309 63.5642 1844
17705 2 -106.5129 -106.5129 65.2821 1844
17598 1 -97.92315 -108.2309 63.5642 1843
17604 2 -111.6668 -104.79495 63.5642 1844
17717 2 -109.9488 -103.077 65.2821 1844
17606 1 -108.2309 -104.79495 63.5642 1844
17682 1 -97.92315 -111.6668 67.0 1843
17688 4 -111.6668 -108.2309 67.0 1844
17801 2 -109.9488 -106.5129 68.718 1844
17690 1 -108.2309 -108.2309 67.0 1844
17702 2 -111.6668 -104.79495 67.0 1844
17704 1 -108.2309 -104.79495 67.0 1844
17906 3 -97.92315 -80.7436 25.7692 1845
17939 2 -113.3847 -96.2052 27.4872 1840
17940 4 -111.6668 -94.48725 29.2052 1840
17941 2 -109.9488 -96.2052 27.4872 1840
17982 4 -111.6668 -84.1795 29.2052 1846
18003 2 -99.6411 -82.4616 27.4872 1845
17990 4 -97.92315 -84.1795 29.2052 1845
18002 4 -101.35905 -80.7436 29.2052 1845
18017 1 -99.6411 -79.0257 27.4872 1845
18018 4 -97.92315 -77.3078 29.2052 1845
18037 2 -113.3847 -96.2052 30.9231 1840
18039 3 -109.9488 -96.2052 30.9231 1840
18066 1 -111.6668 -87.61545 32.641 1846
18079 1 -113.3847 -85.8975 30.9231 1846
18081 4 -109.9488 -85.8975 30.9231 1846
18078 4 -115.1026 -84.1795 32.641 1846
18093 1 -113.3847 -82.4616 30.9231 1846
18095 1 -109.9488 -82.4616 30.9231 1846
18082 1 -108.2309 -84.1795 32.641 1846
18101 4 -99.6411 -82.4616 30.9231 1845
18094 4 -111.6668 -80.7436 32.641 1846
18115 4 -99.6411 -79.0257 30.9231 1845
18102 1 -97.92315 -80.7436 32.641 1845
18177 3 -113.3847 -85.8975 34.359 1846
18179 2 -109.9488 -85.8975 34.359 1846
18191 3 -113.3847 -82.4616 34.359 1846
18193 3 -109.9488 -82.4616 34.359 1846
18178 4 -111.6668 -84.1795 36.0769 1846
18379 3 -103.077 -85.8975 41.2308 127
18364 1 -104.79495 -87.61545 42.94875 127
18463 3 -103.077 -89.3334 44.6667 127
18366 2 -101.35905 -87.61545 42.94875 127
18465 4 -99.6411 -89.3334 44.6667 127
18368 4 -97.92315 -87.61545 42.94875 127
18475 1 -106.5129 -85.8975 44.6667 127
18479 2 -99.6411 -85.8975 44.6667 127
18378 4 -104.79495 -84.1795 42.94875 127
18491 4 -103.077 -82.4616 44.6667 127
18380 2 -101.35905 -84.1795 42.94875 127
18452 2 -97.92315 -91.05135 46.38465 127