ITEM: TIMESTEP
0
ITEM: NUMBER OF ATOMS
24
ITEM: BOX BOUNDS pp pp pp
-120.2565 168.3591
-120.2565 168.3591
-120.2565 168.3591
ITEM: ATOMS id type x y z Cluster
1138078 4 125.4104 97.92315 49.82055 514
1138080 2 128.8462 97.92315 49.82055 514
1138092 1 125.4104 101.35905 49.82055 514
1138093 2 127.1283 99.6411 48.1026 514
1138094 4 128.8462 101.35905 49.82055 514
1138176 1 125.4104 97.92315 53.25645 514
1138177 1 127.1283 96.2052 51.5385 514
1138178 2 128.8462 97.92315 53.25645 514
1138189 4 123.6924 99.6411 51.5385 514
1138190 3 125.4104 101.35905 53.25645 514
1138192 4 128.8462 101.35905 53.25645 514
1138193 1 130.5642 99.6411 51.5385 514
1138204 4 125.4104 104.79495 53.25645 514
1138205 1 127.1283 103.077 51.5385 514
1138206 2 128.8462 104.79495 53.25645 514
1138288 1 125.4104 101.35905 56.69235 514
1138289 2 127.1283 99.6411 54.9744 514
1138290 2 128.8462 101.35905 56.69235 514
1138301 3 123.6924 103.077 54.9744 514
1138302 4 125.4104 104.79495 56.69235 514
1138304 1 128.8462 104.79495 56.69235 514
1138305 3 130.5642 103.077 54.9744 514
1138317 4 127.1283 106.5129 54.9744 514
1138401 3 127.1283 103.077 58.4103 514
