ITEM: TIMESTEP
0
ITEM: NUMBER OF ATOMS
14
ITEM: BOX BOUNDS pp pp pp
-120.2565 168.3591
-120.2565 168.3591
-120.2565 168.3591
ITEM: ATOMS id type x y z Cluster
918014 4 80.7436 60.1283 125.4104 1231
918098 1 80.7436 56.69235 128.8462 1231
918111 1 79.0257 58.4103 127.1283 1231
918113 4 82.4616 58.4103 127.1283 1231
918110 4 77.3078 60.1283 128.8462 1231
918125 1 79.0257 61.8462 127.1283 1231
918127 1 82.4616 61.8462 127.1283 1231
918114 1 84.1795 60.1283 128.8462 1231
918126 4 80.7436 63.5642 128.8462 1231
918209 3 79.0257 58.4103 130.5642 1231
918211 2 82.4616 58.4103 130.5642 1231
918223 3 79.0257 61.8462 130.5642 1231
918225 3 82.4616 61.8462 130.5642 1231
918210 4 80.7436 60.1283 132.2821 1231
