ITEM: TIMESTEP
0
ITEM: NUMBER OF ATOMS
14
ITEM: BOX BOUNDS pp pp pp
-120.2565 168.3591
-120.2565 168.3591
-120.2565 168.3591
ITEM: ATOMS id type x y z Cluster
823382 3 94.48725 -53.25645 -115.1026 938
823479 2 92.7693 -54.9744 -113.3847 938
823466 4 94.48725 -56.69235 -111.6668 938
823478 1 91.05135 -53.25645 -111.6668 938
823493 2 92.7693 -51.5385 -113.3847 938
823494 1 94.48725 -49.82055 -111.6668 938
823577 1 92.7693 -54.9744 -109.9488 938
823591 1 92.7693 -51.5385 -109.9488 938
823578 3 94.48725 -53.25645 -108.2309 938
826211 3 96.2052 -54.9744 -113.3847 938
826212 1 97.92315 -53.25645 -111.6668 938
826225 4 96.2052 -51.5385 -113.3847 938
826309 2 96.2052 -54.9744 -109.9488 938
826323 2 96.2052 -51.5385 -109.9488 938
