ITEM: TIMESTEP
0
ITEM: NUMBER OF ATOMS
9
ITEM: BOX BOUNDS pp pp pp
-96.2052 134.68728
-120.2565 168.3591
-120.2565 168.3591
ITEM: ATOMS id type x y z Cluster
77602 2 -78.33852 -5.15385 1.71795 0
77616 4 -78.33852 -1.71795 1.71795 0
77713 3 -79.71288 -3.4359 3.4359 0
80334 3 -75.5898 -5.15385 1.71795 0
80347 3 -76.96416 -3.4359 0.0 0
80348 1 -75.5898 -1.71795 1.71795 0
80431 2 -76.96416 -6.8718 3.4359 0
80447 4 -74.21544 -3.4359 3.4359 0
81635 3 -76.96416 0.0 0.0 0
