ITEM: TIMESTEP
0
ITEM: NUMBER OF ATOMS
9
ITEM: BOX BOUNDS pp pp pp
-96.2052 134.68728
-120.2565 168.3591
-120.2565 168.3591
ITEM: ATOMS id type x y z Cluster
593474 2 37.10772 -101.35905 -94.48725 0
593488 4 37.10772 -97.92315 -94.48725 0
593585 3 35.73336 -99.6411 -92.7693 0
596206 3 39.85644 -101.35905 -94.48725 0
596219 3 38.48208 -99.6411 -96.2052 0
596220 1 39.85644 -97.92315 -94.48725 0
596303 2 38.48208 -103.077 -92.7693 0
596319 4 41.2308 -99.6411 -92.7693 0
597507 3 38.48208 -96.2052 -96.2052 0
