ITEM: TIMESTEP
0
ITEM: NUMBER OF ATOMS
9
ITEM: BOX BOUNDS pp pp pp
-96.2052 134.68728
-120.2565 168.3591
-120.2565 168.3591
ITEM: ATOMS id type x y z Cluster
741650 2 37.10772 91.05135 49.82055 0
741664 4 37.10772 94.48725 49.82055 0
741761 3 35.73336 92.7693 51.5385 0
744382 3 39.85644 91.05135 49.82055 0
744395 3 38.48208 92.7693 48.1026 0
744396 1 39.85644 94.48725 49.82055 0
744479 2 38.48208 89.3334 51.5385 0
744495 4 41.2308 92.7693 51.5385 0
745683 3 38.48208 96.2052 48.1026 0
