ITEM: TIMESTEP
0
ITEM: NUMBER OF ATOMS
16
ITEM: BOX BOUNDS pp pp pp
-96.2052 134.68728
-120.2565 168.3591
-120.2565 168.3591
ITEM: ATOMS id type x y z Cluster
983220 3 75.5898 139.15395 149.46165 2
983234 4 75.5898 142.58985 149.46165 2
983331 1 74.21544 140.8719 151.1796 2
983318 3 75.5898 139.15395 152.89755 2
984424 3 75.5898 146.02575 146.02575 2
984521 3 74.21544 144.3078 147.7437 2
984522 3 75.5898 146.02575 149.46165 2
985952 4 78.33852 139.15395 149.46165 2
985966 1 78.33852 142.58985 149.46165 2
986049 4 76.96416 137.436 151.1796 2
986050 1 78.33852 139.15395 152.89755 2
986065 1 79.71288 140.8719 151.1796 2
987156 4 78.33852 146.02575 146.02575 2
987254 3 78.33852 146.02575 149.46165 2
987255 1 79.71288 144.3078 147.7437 2
987267 3 76.96416 147.7437 147.7437 2
