ITEM: TIMESTEP
0
ITEM: NUMBER OF ATOMS
9
ITEM: BOX BOUNDS pp pp pp
-96.2052 134.68728
-120.2565 168.3591
-120.2565 168.3591
ITEM: ATOMS id type x y z Cluster
401394 2 -1.37436 -101.35905 -46.38465 0
401408 4 -1.37436 -97.92315 -46.38465 0
401505 3 -2.74872 -99.6411 -44.6667 0
404126 3 1.37436 -101.35905 -46.38465 0
404139 3 0.0 -99.6411 -48.1026 0
404140 1 1.37436 -97.92315 -46.38465 0
404223 2 0.0 -103.077 -44.6667 0
404239 4 2.74872 -99.6411 -44.6667 0
405427 3 0.0 -96.2052 -48.1026 0
