ITEM: TIMESTEP
0
ITEM: NUMBER OF ATOMS
16
ITEM: BOX BOUNDS pp pp pp
-96.2052 134.68728
-120.2565 168.3591
-120.2565 168.3591
ITEM: ATOMS id type x y z Cluster
72212 3 -78.33852 -5.15385 -42.94875 2
72226 4 -78.33852 -1.71795 -42.94875 2
72323 1 -79.71288 -3.4359 -41.2308 2
72310 3 -78.33852 -5.15385 -39.51285 2
73416 3 -78.33852 1.71795 -46.38465 2
73513 3 -79.71288 0.0 -44.6667 2
73514 3 -78.33852 1.71795 -42.94875 2
74944 4 -75.5898 -5.15385 -42.94875 2
74958 1 -75.5898 -1.71795 -42.94875 2
75041 4 -76.96416 -6.8718 -41.2308 2
75042 1 -75.5898 -5.15385 -39.51285 2
75057 1 -74.21544 -3.4359 -41.2308 2
76148 4 -75.5898 1.71795 -46.38465 2
76246 3 -75.5898 1.71795 -42.94875 2
76247 1 -74.21544 0.0 -44.6667 2
76259 3 -76.96416 3.4359 -44.6667 2
