ITEM: TIMESTEP
0
ITEM: NUMBER OF ATOMS
9
ITEM: BOX BOUNDS pp pp pp
-96.2052 134.68728
-120.2565 168.3591
-120.2565 168.3591
ITEM: ATOMS id type x y z Cluster
1011962 3 114.07188 -94.48725 101.35905 1
1012059 4 112.69752 -96.2052 103.077 1
1012060 3 114.07188 -94.48725 104.79495 1
1014694 3 116.8206 -94.48725 101.35905 1
1014707 3 115.44624 -92.7693 99.6411 1
1014792 1 116.8206 -94.48725 104.79495 1
1014793 4 118.19496 -96.2052 103.077 1
1014805 3 115.44624 -92.7693 103.077 1
1014889 2 115.44624 -96.2052 106.5129 1
