ITEM: TIMESTEP
0
ITEM: NUMBER OF ATOMS
24
ITEM: BOX BOUNDS pp pp pp
-120.2565 168.3591
-120.2565 168.3591
-120.2565 168.3591
ITEM: ATOMS id type x y z Cluster
461523 4 -3.4359 -17.1795 -103.077 302
461426 4 -1.71795 -15.4616 -104.79495 302
461535 3 -6.8718 -13.7436 -103.077 302
461537 1 -3.4359 -13.7436 -103.077 302
461549 2 -6.8718 -10.3077 -103.077 302
461438 1 -5.15385 -12.0257 -104.79495 302
461551 4 -3.4359 -10.3077 -103.077 302
461510 2 -1.71795 -18.8974 -101.35905 302
461522 1 -5.15385 -15.4616 -101.35905 302
461621 3 -3.4359 -17.1795 -99.6411 302
461633 2 -6.8718 -13.7436 -99.6411 302
461635 1 -3.4359 -13.7436 -99.6411 302
461534 3 -8.58975 -12.0257 -101.35905 302
461647 4 -6.8718 -10.3077 -99.6411 302
461649 4 -3.4359 -10.3077 -99.6411 302
461538 2 -1.71795 -12.0257 -101.35905 302
461550 2 -5.15385 -8.58975 -101.35905 302
461622 2 -1.71795 -15.4616 -97.92315 302
461634 3 -5.15385 -12.0257 -97.92315 302
464255 3 0.0 -17.1795 -103.077 302
464269 4 0.0 -13.7436 -103.077 302
464256 3 1.71795 -15.4616 -101.35905 302
464353 2 0.0 -17.1795 -99.6411 302
464367 2 0.0 -13.7436 -99.6411 302
