ITEM: TIMESTEP
0
ITEM: NUMBER OF ATOMS
9
ITEM: BOX BOUNDS pp pp pp
-96.2052 134.68728
-120.2565 168.3591
-120.2565 168.3591
ITEM: ATOMS id type x y z Cluster
467250 2 -1.37436 -5.15385 -46.38465 0
467264 4 -1.37436 -1.71795 -46.38465 0
467361 3 -2.74872 -3.4359 -44.6667 0
469982 3 1.37436 -5.15385 -46.38465 0
469995 3 0.0 -3.4359 -48.1026 0
469996 1 1.37436 -1.71795 -46.38465 0
470079 2 0.0 -6.8718 -44.6667 0
470095 4 2.74872 -3.4359 -44.6667 0
471283 3 0.0 0.0 -48.1026 0
