ITEM: TIMESTEP
0
ITEM: NUMBER OF ATOMS
14
ITEM: BOX BOUNDS pp pp pp
-120.2565 168.3591
-120.2565 168.3591
-120.2565 168.3591
ITEM: ATOMS id type x y z Cluster
1034214 4 128.8462 -42.94875 15.4616 1022
1034311 4 127.1283 -44.6667 17.1795 1022
1034313 1 130.5642 -44.6667 17.1795 1022
1034325 4 127.1283 -41.2308 17.1795 1022
1034327 3 130.5642 -41.2308 17.1795 1022
1034298 2 128.8462 -46.38465 18.8974 1022
1034310 2 125.4104 -42.94875 18.8974 1022
1034409 3 127.1283 -44.6667 20.6154 1022
1034411 1 130.5642 -44.6667 20.6154 1022
1034314 1 132.2821 -42.94875 18.8974 1022
1034326 4 128.8462 -39.51285 18.8974 1022
1034423 2 127.1283 -41.2308 20.6154 1022
1034425 2 130.5642 -41.2308 20.6154 1022
1034410 2 128.8462 -42.94875 22.3334 1022
