ITEM: TIMESTEP
0
ITEM: NUMBER OF ATOMS
9
ITEM: BOX BOUNDS pp pp pp
-96.2052 134.68728
-120.2565 168.3591
-120.2565 168.3591
ITEM: ATOMS id type x y z Cluster
1093092 1 114.07188 46.38465 -39.51285 1
1094379 4 112.69752 48.1026 -41.2308 1
1094380 3 114.07188 49.82055 -39.51285 1
1095824 4 116.8206 46.38465 -39.51285 1
1095921 4 115.44624 44.6667 -37.7949 1
1097112 1 116.8206 49.82055 -39.51285 1
1097113 4 118.19496 48.1026 -41.2308 1
1097125 3 115.44624 51.5385 -41.2308 1
1097209 2 115.44624 48.1026 -37.7949 1
