ITEM: TIMESTEP
0
ITEM: NUMBER OF ATOMS
9
ITEM: BOX BOUNDS pp pp pp
-96.2052 134.68728
-120.2565 168.3591
-120.2565 168.3591
ITEM: ATOMS id type x y z Cluster
176596 1 -78.33852 142.58985 8.58975 1
177883 4 -79.71288 144.3078 6.8718 1
177884 3 -78.33852 146.02575 8.58975 1
179328 4 -75.5898 142.58985 8.58975 1
179425 4 -76.96416 140.8719 10.3077 1
180616 1 -75.5898 146.02575 8.58975 1
180617 4 -74.21544 144.3078 6.8718 1
180629 3 -76.96416 147.7437 6.8718 1
180713 2 -76.96416 144.3078 10.3077 1
