ITEM: TIMESTEP
0
ITEM: NUMBER OF ATOMS
36
ITEM: BOX BOUNDS pp pp pp
-120.2565 168.3591
-120.2565 168.3591
-120.2565 168.3591
ITEM: ATOMS id type x y z Cluster
281803 3 -54.9744 10.3077 41.2308 151
281788 1 -56.69235 8.58975 42.94875 151
281887 3 -54.9744 6.8718 44.6667 151
281790 2 -53.25645 8.58975 42.94875 151
281889 4 -51.5385 6.8718 44.6667 151
281792 4 -49.82055 8.58975 42.94875 151
281899 1 -58.4103 10.3077 44.6667 151
281903 2 -51.5385 10.3077 44.6667 151
281802 4 -56.69235 12.0257 42.94875 151
281915 4 -54.9744 13.7436 44.6667 151
281804 2 -53.25645 12.0257 42.94875 151
281876 2 -49.82055 5.15385 46.38465 151
281886 4 -56.69235 8.58975 46.38465 151
281888 4 -53.25645 8.58975 46.38465 151
281900 3 -56.69235 12.0257 46.38465 151
281902 4 -53.25645 12.0257 46.38465 151
281904 2 -49.82055 12.0257 46.38465 151
281914 1 -56.69235 15.4616 46.38465 151
281916 2 -53.25645 15.4616 46.38465 151
281987 1 -51.5385 6.8718 48.1026 151
281988 3 -49.82055 8.58975 49.82055 151
281999 3 -54.9744 10.3077 48.1026 151
282001 2 -51.5385 10.3077 48.1026 151
282011 2 -58.4103 13.7436 48.1026 151
281998 4 -56.69235 12.0257 49.82055 151
282000 4 -53.25645 12.0257 49.82055 151
282015 4 -51.5385 13.7436 48.1026 151
282012 2 -56.69235 15.4616 49.82055 151
282027 4 -54.9744 17.1795 48.1026 151
282014 2 -53.25645 15.4616 49.82055 151
282111 1 -54.9744 13.7436 51.5385 151
284621 4 -48.1026 6.8718 44.6667 151
284635 1 -48.1026 10.3077 44.6667 151
284622 1 -46.38465 8.58975 46.38465 151
284719 1 -48.1026 6.8718 48.1026 151
284733 2 -48.1026 10.3077 48.1026 151
