ITEM: TIMESTEP
0
ITEM: NUMBER OF ATOMS
14
ITEM: BOX BOUNDS pp pp pp
-120.2565 168.3591
-120.2565 168.3591
-120.2565 168.3591
ITEM: ATOMS id type x y z Cluster
362298 1 -63.5642 142.58985 -118.5386 2441
362382 3 -63.5642 139.15395 -115.1026 2441
362395 4 -65.2821 140.8719 -116.8206 2441
362397 2 -61.8462 140.8719 -116.8206 2441
362394 2 -67.0 142.58985 -115.1026 2441
362398 3 -60.1283 142.58985 -115.1026 2441
362493 3 -65.2821 140.8719 -113.3847 2441
362495 4 -61.8462 140.8719 -113.3847 2441
362494 1 -63.5642 142.58985 -111.6668 2441
363683 2 -65.2821 144.3078 -116.8206 2441
363684 4 -63.5642 146.02575 -115.1026 2441
363685 2 -61.8462 144.3078 -116.8206 2441
363781 2 -65.2821 144.3078 -113.3847 2441
363783 3 -61.8462 144.3078 -113.3847 2441
