ITEM: TIMESTEP
0
ITEM: NUMBER OF ATOMS
9
ITEM: BOX BOUNDS pp pp pp
-96.2052 134.68728
-120.2565 168.3591
-120.2565 168.3591
ITEM: ATOMS id type x y z Cluster
736372 1 37.10772 94.48725 8.58975 1
737659 4 35.73336 96.2052 6.8718 1
737660 3 37.10772 97.92315 8.58975 1
739104 4 39.85644 94.48725 8.58975 1
739201 4 38.48208 92.7693 10.3077 1
740392 1 39.85644 97.92315 8.58975 1
740393 4 41.2308 96.2052 6.8718 1
740405 3 38.48208 99.6411 6.8718 1
740489 2 38.48208 96.2052 10.3077 1
