ITEM: TIMESTEP
0
ITEM: NUMBER OF ATOMS
16
ITEM: BOX BOUNDS pp pp pp
-96.2052 134.68728
-120.2565 168.3591
-120.2565 168.3591
ITEM: ATOMS id type x y z Cluster
626500 3 37.10772 -53.25645 -91.05135 2
626514 4 37.10772 -49.82055 -91.05135 2
626611 1 35.73336 -51.5385 -89.3334 2
626598 3 37.10772 -53.25645 -87.61545 2
627704 3 37.10772 -46.38465 -94.48725 2
627801 3 35.73336 -48.1026 -92.7693 2
627802 3 37.10772 -46.38465 -91.05135 2
629232 4 39.85644 -53.25645 -91.05135 2
629246 1 39.85644 -49.82055 -91.05135 2
629329 4 38.48208 -54.9744 -89.3334 2
629330 1 39.85644 -53.25645 -87.61545 2
629345 1 41.2308 -51.5385 -89.3334 2
630436 4 39.85644 -46.38465 -94.48725 2
630534 3 39.85644 -46.38465 -91.05135 2
630535 1 41.2308 -48.1026 -92.7693 2
630547 3 38.48208 -44.6667 -92.7693 2
