ITEM: TIMESTEP
0
ITEM: NUMBER OF ATOMS
9
ITEM: BOX BOUNDS pp pp pp
-96.2052 134.68728
-120.2565 168.3591
-120.2565 168.3591
ITEM: ATOMS id type x y z Cluster
407092 1 -1.37436 -97.92315 8.58975 1
408379 4 -2.74872 -96.2052 6.8718 1
408380 3 -1.37436 -94.48725 8.58975 1
409824 4 1.37436 -97.92315 8.58975 1
409921 4 0.0 -99.6411 10.3077 1
411112 1 1.37436 -94.48725 8.58975 1
411113 4 2.74872 -96.2052 6.8718 1
411125 3 0.0 -92.7693 6.8718 1
411209 2 0.0 -96.2052 10.3077 1
