ITEM: TIMESTEP
0
ITEM: NUMBER OF ATOMS
16
ITEM: BOX BOUNDS pp pp pp
-96.2052 134.68728
-120.2565 168.3591
-120.2565 168.3591
ITEM: ATOMS id type x y z Cluster
192948 3 -78.33852 139.15395 149.46165 2
192962 4 -78.33852 142.58985 149.46165 2
193059 1 -79.71288 140.8719 151.1796 2
193046 3 -78.33852 139.15395 152.89755 2
194152 3 -78.33852 146.02575 146.02575 2
194249 3 -79.71288 144.3078 147.7437 2
194250 3 -78.33852 146.02575 149.46165 2
195680 4 -75.5898 139.15395 149.46165 2
195694 1 -75.5898 142.58985 149.46165 2
195777 4 -76.96416 137.436 151.1796 2
195778 1 -75.5898 139.15395 152.89755 2
195793 1 -74.21544 140.8719 151.1796 2
196884 4 -75.5898 146.02575 146.02575 2
196982 3 -75.5898 146.02575 149.46165 2
196983 1 -74.21544 144.3078 147.7437 2
196995 3 -76.96416 147.7437 147.7437 2
