ITEM: TIMESTEP
0
ITEM: NUMBER OF ATOMS
9
ITEM: BOX BOUNDS pp pp pp
-96.2052 134.68728
-120.2565 168.3591
-120.2565 168.3591
ITEM: ATOMS id type x y z Cluster
917476 1 75.5898 46.38465 152.89755 1
918763 4 74.21544 48.1026 151.1796 1
918764 3 75.5898 49.82055 152.89755 1
920208 4 78.33852 46.38465 152.89755 1
920305 4 76.96416 44.6667 154.6155 1
921496 1 78.33852 49.82055 152.89755 1
921497 4 79.71288 48.1026 151.1796 1
921509 3 76.96416 51.5385 151.1796 1
921593 2 76.96416 48.1026 154.6155 1
