ITEM: TIMESTEP
0
ITEM: NUMBER OF ATOMS
24
ITEM: BOX BOUNDS pp pp pp
-120.2565 168.3591
-120.2565 168.3591
-120.2565 168.3591
ITEM: ATOMS id type x y z Cluster
351763 4 -51.5385 79.0257 89.3334 422
351666 4 -49.82055 80.7436 87.61545 422
351775 3 -54.9744 82.4616 89.3334 422
351777 1 -51.5385 82.4616 89.3334 422
351789 2 -54.9744 85.8975 89.3334 422
351678 1 -53.25645 84.1795 87.61545 422
351791 4 -51.5385 85.8975 89.3334 422
351750 2 -49.82055 77.3078 91.05135 422
351762 1 -53.25645 80.7436 91.05135 422
351861 3 -51.5385 79.0257 92.7693 422
351873 2 -54.9744 82.4616 92.7693 422
351875 1 -51.5385 82.4616 92.7693 422
351774 3 -56.69235 84.1795 91.05135 422
351887 4 -54.9744 85.8975 92.7693 422
351889 4 -51.5385 85.8975 92.7693 422
351778 2 -49.82055 84.1795 91.05135 422
351790 2 -53.25645 87.61545 91.05135 422
351862 2 -49.82055 80.7436 94.48725 422
351874 3 -53.25645 84.1795 94.48725 422
354495 3 -48.1026 79.0257 89.3334 422
354509 4 -48.1026 82.4616 89.3334 422
354496 3 -46.38465 80.7436 91.05135 422
354593 2 -48.1026 79.0257 92.7693 422
354607 2 -48.1026 82.4616 92.7693 422
