ITEM: TIMESTEP
0
ITEM: NUMBER OF ATOMS
14
ITEM: BOX BOUNDS pp pp pp
-120.2565 168.3591
-120.2565 168.3591
-120.2565 168.3591
ITEM: ATOMS id type x y z Cluster
12494 4 -111.6668 -84.1795 -18.8974 1837
12578 1 -111.6668 -87.61545 -15.4616 1837
12591 1 -113.3847 -85.8975 -17.1795 1837
12593 4 -109.9488 -85.8975 -17.1795 1837
12590 4 -115.1026 -84.1795 -15.4616 1837
12605 1 -113.3847 -82.4616 -17.1795 1837
12607 1 -109.9488 -82.4616 -17.1795 1837
12594 1 -108.2309 -84.1795 -15.4616 1837
12606 4 -111.6668 -80.7436 -15.4616 1837
12689 3 -113.3847 -85.8975 -13.7436 1837
12691 2 -109.9488 -85.8975 -13.7436 1837
12703 3 -113.3847 -82.4616 -13.7436 1837
12705 3 -109.9488 -82.4616 -13.7436 1837
12690 4 -111.6668 -84.1795 -12.0257 1837
