ITEM: TIMESTEP
0
ITEM: NUMBER OF ATOMS
14
ITEM: BOX BOUNDS pp pp pp
-120.2565 168.3591
-120.2565 168.3591
-120.2565 168.3591
ITEM: ATOMS id type x y z Cluster
890574 4 80.7436 60.1283 -115.1026 1320
890658 1 80.7436 56.69235 -111.6668 1320
890671 1 79.0257 58.4103 -113.3847 1320
890673 4 82.4616 58.4103 -113.3847 1320
890670 4 77.3078 60.1283 -111.6668 1320
890685 1 79.0257 61.8462 -113.3847 1320
890687 1 82.4616 61.8462 -113.3847 1320
890674 1 84.1795 60.1283 -111.6668 1320
890686 4 80.7436 63.5642 -111.6668 1320
890769 3 79.0257 58.4103 -109.9488 1320
890771 2 82.4616 58.4103 -109.9488 1320
890783 3 79.0257 61.8462 -109.9488 1320
890785 3 82.4616 61.8462 -109.9488 1320
890770 4 80.7436 60.1283 -108.2309 1320
