ITEM: TIMESTEP
0
ITEM: NUMBER OF ATOMS
9
ITEM: BOX BOUNDS pp pp pp
-96.2052 134.68728
-120.2565 168.3591
-120.2565 168.3591
ITEM: ATOMS id type x y z Cluster
373954 2 -39.85644 139.15395 1.71795 0
373968 4 -39.85644 142.58985 1.71795 0
374065 3 -41.2308 140.8719 3.4359 0
376686 3 -37.10772 139.15395 1.71795 0
376699 3 -38.48208 140.8719 0.0 0
376700 1 -37.10772 142.58985 1.71795 0
376783 2 -38.48208 137.436 3.4359 0
376799 4 -35.73336 140.8719 3.4359 0
377987 3 -38.48208 144.3078 0.0 0
