ITEM: TIMESTEP
0
ITEM: NUMBER OF ATOMS
9
ITEM: BOX BOUNDS pp pp pp
-57.72312 57.72312
-72.1539 72.1539
-72.1539 72.1539
ITEM: ATOMS id type x y z Cluster
116228 1 37.10772 -1.71795 -39.51285 1
117515 4 35.73336 0.0 -41.2308 1
117516 3 37.10772 1.71795 -39.51285 1
118960 4 39.85644 -1.71795 -39.51285 1
119057 4 38.48208 -3.4359 -37.7949 1
120248 1 39.85644 1.71795 -39.51285 1
120249 4 41.2308 0.0 -41.2308 1
120261 3 38.48208 3.4359 -41.2308 1
120345 2 38.48208 0.0 -37.7949 1
