ITEM: TIMESTEP
0
ITEM: NUMBER OF ATOMS
16
ITEM: BOX BOUNDS pp pp pp
-96.2052 134.68728
-120.2565 168.3591
-120.2565 168.3591
ITEM: ATOMS id type x y z Cluster
1180788 3 114.07188 139.15395 149.46165 2
1180802 4 114.07188 142.58985 149.46165 2
1180899 1 112.69752 140.8719 151.1796 2
1180886 3 114.07188 139.15395 152.89755 2
1181992 3 114.07188 146.02575 146.02575 2
1182089 3 112.69752 144.3078 147.7437 2
1182090 3 114.07188 146.02575 149.46165 2
1183520 4 116.8206 139.15395 149.46165 2
1183534 1 116.8206 142.58985 149.46165 2
1183617 4 115.44624 137.436 151.1796 2
1183618 1 116.8206 139.15395 152.89755 2
1183633 1 118.19496 140.8719 151.1796 2
1184724 4 116.8206 146.02575 146.02575 2
1184822 3 116.8206 146.02575 149.46165 2
1184823 1 118.19496 144.3078 147.7437 2
1184835 3 115.44624 147.7437 147.7437 2
