ITEM: TIMESTEP
0
ITEM: NUMBER OF ATOMS
36
ITEM: BOX BOUNDS pp pp pp
-120.2565 168.3591
-120.2565 168.3591
-120.2565 168.3591
ITEM: ATOMS id type x y z Cluster
73259 3 -103.077 10.3077 -54.9744 21
73244 1 -104.79495 8.58975 -53.25645 21
73343 3 -103.077 6.8718 -51.5385 21
73246 2 -101.35905 8.58975 -53.25645 21
73345 4 -99.6411 6.8718 -51.5385 21
73248 4 -97.92315 8.58975 -53.25645 21
73355 1 -106.5129 10.3077 -51.5385 21
73359 2 -99.6411 10.3077 -51.5385 21
73258 4 -104.79495 12.0257 -53.25645 21
73371 4 -103.077 13.7436 -51.5385 21
73260 2 -101.35905 12.0257 -53.25645 21
73332 2 -97.92315 5.15385 -49.82055 21
73342 4 -104.79495 8.58975 -49.82055 21
73344 4 -101.35905 8.58975 -49.82055 21
73356 3 -104.79495 12.0257 -49.82055 21
73358 4 -101.35905 12.0257 -49.82055 21
73360 2 -97.92315 12.0257 -49.82055 21
73370 1 -104.79495 15.4616 -49.82055 21
73372 2 -101.35905 15.4616 -49.82055 21
73443 1 -99.6411 6.8718 -48.1026 21
73444 3 -97.92315 8.58975 -46.38465 21
73455 3 -103.077 10.3077 -48.1026 21
73457 2 -99.6411 10.3077 -48.1026 21
73467 2 -106.5129 13.7436 -48.1026 21
73454 4 -104.79495 12.0257 -46.38465 21
73456 4 -101.35905 12.0257 -46.38465 21
73471 4 -99.6411 13.7436 -48.1026 21
73468 2 -104.79495 15.4616 -46.38465 21
73483 4 -103.077 17.1795 -48.1026 21
73470 2 -101.35905 15.4616 -46.38465 21
73567 1 -103.077 13.7436 -44.6667 21
76077 4 -96.2052 6.8718 -51.5385 21
76091 1 -96.2052 10.3077 -51.5385 21
76078 1 -94.48725 8.58975 -49.82055 21
76175 1 -96.2052 6.8718 -48.1026 21
76189 2 -96.2052 10.3077 -48.1026 21
