ITEM: TIMESTEP
0
ITEM: NUMBER OF ATOMS
14
ITEM: BOX BOUNDS pp pp pp
-120.2565 168.3591
-120.2565 168.3591
-120.2565 168.3591
ITEM: ATOMS id type x y z Cluster
675206 3 46.38465 -5.15385 29.2052 2227
675303 2 44.6667 -6.8718 30.9231 2227
675290 4 46.38465 -8.58975 32.641 2227
675302 1 42.94875 -5.15385 32.641 2227
675317 2 44.6667 -3.4359 30.9231 2227
675318 1 46.38465 -1.71795 32.641 2227
675401 1 44.6667 -6.8718 34.359 2227
675415 1 44.6667 -3.4359 34.359 2227
675402 3 46.38465 -5.15385 36.0769 2227
678035 3 48.1026 -6.8718 30.9231 2227
678036 1 49.82055 -5.15385 32.641 2227
678049 4 48.1026 -3.4359 30.9231 2227
678133 2 48.1026 -6.8718 34.359 2227
678147 2 48.1026 -3.4359 34.359 2227
