ITEM: TIMESTEP
0
ITEM: NUMBER OF ATOMS
9
ITEM: BOX BOUNDS pp pp pp
-96.2052 134.68728
-120.2565 168.3591
-120.2565 168.3591
ITEM: ATOMS id type x y z Cluster
149156 1 -78.33852 94.48725 56.69235 1
150443 4 -79.71288 96.2052 54.9744 1
150444 3 -78.33852 97.92315 56.69235 1
151888 4 -75.5898 94.48725 56.69235 1
151985 4 -76.96416 92.7693 58.4103 1
153176 1 -75.5898 97.92315 56.69235 1
153177 4 -74.21544 96.2052 54.9744 1
153189 3 -76.96416 99.6411 54.9744 1
153273 2 -76.96416 96.2052 58.4103 1
