ITEM: TIMESTEP
0
ITEM: NUMBER OF ATOMS
9
ITEM: BOX BOUNDS pp pp pp
-96.2052 134.68728
-120.2565 168.3591
-120.2565 168.3591
ITEM: ATOMS id type x y z Cluster
994308 1 114.07188 -97.92315 -39.51285 1
995595 4 112.69752 -96.2052 -41.2308 1
995596 3 114.07188 -94.48725 -39.51285 1
997040 4 116.8206 -97.92315 -39.51285 1
997137 4 115.44624 -99.6411 -37.7949 1
998328 1 116.8206 -94.48725 -39.51285 1
998329 4 118.19496 -96.2052 -41.2308 1
998341 3 115.44624 -92.7693 -41.2308 1
998425 2 115.44624 -96.2052 -37.7949 1
