ITEM: TIMESTEP
0
ITEM: NUMBER OF ATOMS
14
ITEM: BOX BOUNDS pp pp pp
-120.2565 168.3591
-120.2565 168.3591
-120.2565 168.3591
ITEM: ATOMS id type x y z Cluster
391166 4 -63.5642 156.3335 125.4104 2319
391250 1 -63.5642 152.89755 128.8462 2319
391263 1 -65.2821 154.6155 127.1283 2319
391265 4 -61.8462 154.6155 127.1283 2319
391262 4 -67.0 156.3335 128.8462 2319
391277 1 -65.2821 158.0514 127.1283 2319
391279 1 -61.8462 158.0514 127.1283 2319
391266 1 -60.1283 156.3335 128.8462 2319
391278 4 -63.5642 159.7694 128.8462 2319
391361 3 -65.2821 154.6155 130.5642 2319
391363 2 -61.8462 154.6155 130.5642 2319
391375 3 -65.2821 158.0514 130.5642 2319
391377 3 -61.8462 158.0514 130.5642 2319
391362 4 -63.5642 156.3335 132.2821 2319
