ITEM: TIMESTEP
0
ITEM: NUMBER OF ATOMS
14
ITEM: BOX BOUNDS pp pp pp
-120.2565 168.3591
-120.2565 168.3591
-120.2565 168.3591
ITEM: ATOMS id type x y z Cluster
39934 4 -111.6668 -36.0769 -67.0 1822
40018 1 -111.6668 -39.51285 -63.5642 1822
40031 1 -113.3847 -37.7949 -65.2821 1822
40033 4 -109.9488 -37.7949 -65.2821 1822
40030 4 -115.1026 -36.0769 -63.5642 1822
40045 1 -113.3847 -34.359 -65.2821 1822
40047 1 -109.9488 -34.359 -65.2821 1822
40034 1 -108.2309 -36.0769 -63.5642 1822
40046 4 -111.6668 -32.641 -63.5642 1822
40129 3 -113.3847 -37.7949 -61.8462 1822
40131 2 -109.9488 -37.7949 -61.8462 1822
40143 3 -113.3847 -34.359 -61.8462 1822
40145 3 -109.9488 -34.359 -61.8462 1822
40130 4 -111.6668 -36.0769 -60.1283 1822
