ITEM: TIMESTEP
0
ITEM: NUMBER OF ATOMS
9
ITEM: BOX BOUNDS pp pp pp
-96.2052 134.68728
-120.2565 168.3591
-120.2565 168.3591
ITEM: ATOMS id type x y z Cluster
1005074 2 114.07188 -101.35905 49.82055 0
1005185 3 112.69752 -99.6411 51.5385 0
1005172 3 114.07188 -101.35905 53.25645 0
1007806 3 116.8206 -101.35905 49.82055 0
1007819 3 115.44624 -99.6411 48.1026 0
1007903 2 115.44624 -103.077 51.5385 0
1007904 4 116.8206 -101.35905 53.25645 0
1007919 4 118.19496 -99.6411 51.5385 0
1008001 4 115.44624 -103.077 54.9744 0
