ITEM: TIMESTEP
0
ITEM: NUMBER OF ATOMS
24
ITEM: BOX BOUNDS pp pp pp
-120.2565 168.3591
-120.2565 168.3591
-120.2565 168.3591
ITEM: ATOMS id type x y z Cluster
978926 4 77.3078 146.02575 97.92315 222
978928 2 80.7436 146.02575 97.92315 222
978940 1 77.3078 149.46165 97.92315 222
978941 2 79.0257 147.7437 96.2052 222
978942 4 80.7436 149.46165 97.92315 222
979024 1 77.3078 146.02575 101.35905 222
979025 1 79.0257 144.3078 99.6411 222
979026 2 80.7436 146.02575 101.35905 222
979037 4 75.5898 147.7437 99.6411 222
979038 3 77.3078 149.46165 101.35905 222
979040 4 80.7436 149.46165 101.35905 222
979041 1 82.4616 147.7437 99.6411 222
979052 4 77.3078 152.89755 101.35905 222
979053 1 79.0257 151.1796 99.6411 222
979054 2 80.7436 152.89755 101.35905 222
979136 1 77.3078 149.46165 104.79495 222
979137 2 79.0257 147.7437 103.077 222
979138 2 80.7436 149.46165 104.79495 222
979149 3 75.5898 151.1796 103.077 222
979150 4 77.3078 152.89755 104.79495 222
979152 1 80.7436 152.89755 104.79495 222
979153 3 82.4616 151.1796 103.077 222
979165 4 79.0257 154.6155 103.077 222
979249 3 79.0257 151.1796 106.5129 222
