ITEM: TIMESTEP
0
ITEM: NUMBER OF ATOMS
14
ITEM: BOX BOUNDS pp pp pp
-120.2565 168.3591
-120.2565 168.3591
-120.2565 168.3591
ITEM: ATOMS id type x y z Cluster
912149 3 82.4616 37.7949 109.9488 1220
912233 2 82.4616 34.359 113.3847 1220
912134 3 80.7436 36.0769 111.6668 1220
912245 2 79.0257 37.7949 113.3847 1220
912136 3 84.1795 36.0769 111.6668 1220
912249 2 85.8975 37.7949 113.3847 1220
912148 2 80.7436 39.51285 111.6668 1220
912261 2 82.4616 41.2308 113.3847 1220
912150 1 84.1795 39.51285 111.6668 1220
912232 4 80.7436 36.0769 115.1026 1220
912345 2 82.4616 37.7949 116.8206 1220
912234 1 84.1795 36.0769 115.1026 1220
912246 2 80.7436 39.51285 115.1026 1220
912248 1 84.1795 39.51285 115.1026 1220
