ITEM: TIMESTEP
0
ITEM: NUMBER OF ATOMS
24
ITEM: BOX BOUNDS pp pp pp
-120.2565 168.3591
-120.2565 168.3591
-120.2565 168.3591
ITEM: ATOMS id type x y z Cluster
598723 4 44.6667 -113.3847 -54.9744 462
598626 4 46.38465 -111.6668 -56.69235 462
598735 3 41.2308 -109.9488 -54.9744 462
598737 1 44.6667 -109.9488 -54.9744 462
598749 2 41.2308 -106.5129 -54.9744 462
598638 1 42.94875 -108.2309 -56.69235 462
598751 4 44.6667 -106.5129 -54.9744 462
598710 2 46.38465 -115.1026 -53.25645 462
598722 1 42.94875 -111.6668 -53.25645 462
598821 3 44.6667 -113.3847 -51.5385 462
598833 2 41.2308 -109.9488 -51.5385 462
598835 1 44.6667 -109.9488 -51.5385 462
598734 3 39.51285 -108.2309 -53.25645 462
598847 4 41.2308 -106.5129 -51.5385 462
598849 4 44.6667 -106.5129 -51.5385 462
598738 2 46.38465 -108.2309 -53.25645 462
598750 2 42.94875 -104.79495 -53.25645 462
598822 2 46.38465 -111.6668 -49.82055 462
598834 3 42.94875 -108.2309 -49.82055 462
601455 3 48.1026 -113.3847 -54.9744 462
601469 4 48.1026 -109.9488 -54.9744 462
601456 3 49.82055 -111.6668 -53.25645 462
601553 2 48.1026 -113.3847 -51.5385 462
601567 2 48.1026 -109.9488 -51.5385 462
