ITEM: TIMESTEP
0
ITEM: NUMBER OF ATOMS
9
ITEM: BOX BOUNDS pp pp pp
-96.2052 134.68728
-120.2565 168.3591
-120.2565 168.3591
ITEM: ATOMS id type x y z Cluster
1006474 3 114.07188 -94.48725 53.25645 1
1006571 4 112.69752 -96.2052 54.9744 1
1006572 3 114.07188 -94.48725 56.69235 1
1009206 3 116.8206 -94.48725 53.25645 1
1009219 3 115.44624 -92.7693 51.5385 1
1009304 1 116.8206 -94.48725 56.69235 1
1009305 4 118.19496 -96.2052 54.9744 1
1009317 3 115.44624 -92.7693 54.9744 1
1009401 2 115.44624 -96.2052 58.4103 1
