ITEM: TIMESTEP
0
ITEM: NUMBER OF ATOMS
36
ITEM: BOX BOUNDS pp pp pp
-120.2565 168.3591
-120.2565 168.3591
-120.2565 168.3591
ITEM: ATOMS id type x y z Cluster
12891 3 -103.077 -85.8975 -6.8718 116
12876 1 -104.79495 -87.61545 -5.15385 116
12975 3 -103.077 -89.3334 -3.4359 116
12878 2 -101.35905 -87.61545 -5.15385 116
12977 4 -99.6411 -89.3334 -3.4359 116
12880 4 -97.92315 -87.61545 -5.15385 116
12987 1 -106.5129 -85.8975 -3.4359 116
12991 2 -99.6411 -85.8975 -3.4359 116
12890 4 -104.79495 -84.1795 -5.15385 116
13003 4 -103.077 -82.4616 -3.4359 116
12892 2 -101.35905 -84.1795 -5.15385 116
12964 2 -97.92315 -91.05135 -1.71795 116
12974 4 -104.79495 -87.61545 -1.71795 116
12976 4 -101.35905 -87.61545 -1.71795 116
12988 3 -104.79495 -84.1795 -1.71795 116
12990 4 -101.35905 -84.1795 -1.71795 116
12992 2 -97.92315 -84.1795 -1.71795 116
13002 1 -104.79495 -80.7436 -1.71795 116
13004 2 -101.35905 -80.7436 -1.71795 116
13075 1 -99.6411 -89.3334 0.0 116
13076 3 -97.92315 -87.61545 1.71795 116
13087 3 -103.077 -85.8975 0.0 116
13089 2 -99.6411 -85.8975 0.0 116
13099 2 -106.5129 -82.4616 0.0 116
13086 4 -104.79495 -84.1795 1.71795 116
13088 4 -101.35905 -84.1795 1.71795 116
13103 4 -99.6411 -82.4616 0.0 116
13100 2 -104.79495 -80.7436 1.71795 116
13115 4 -103.077 -79.0257 0.0 116
13102 2 -101.35905 -80.7436 1.71795 116
13199 1 -103.077 -82.4616 3.4359 116
15709 4 -96.2052 -89.3334 -3.4359 116
15723 1 -96.2052 -85.8975 -3.4359 116
15710 1 -94.48725 -87.61545 -1.71795 116
15807 1 -96.2052 -89.3334 0.0 116
15821 2 -96.2052 -85.8975 0.0 116
