ITEM: TIMESTEP
0
ITEM: NUMBER OF ATOMS
14
ITEM: BOX BOUNDS pp pp pp
-120.2565 168.3591
-120.2565 168.3591
-120.2565 168.3591
ITEM: ATOMS id type x y z Cluster
216502 4 -63.5642 -91.05135 63.5642 1512
216599 4 -65.2821 -92.7693 65.2821 1512
216601 1 -61.8462 -92.7693 65.2821 1512
216613 4 -65.2821 -89.3334 65.2821 1512
216615 3 -61.8462 -89.3334 65.2821 1512
216586 2 -63.5642 -94.48725 67.0 1512
216598 2 -67.0 -91.05135 67.0 1512
216697 3 -65.2821 -92.7693 68.718 1512
216699 1 -61.8462 -92.7693 68.718 1512
216602 1 -60.1283 -91.05135 67.0 1512
216614 4 -63.5642 -87.61545 67.0 1512
216711 2 -65.2821 -89.3334 68.718 1512
216713 2 -61.8462 -89.3334 68.718 1512
216698 2 -63.5642 -91.05135 70.436 1512
