ITEM: TIMESTEP
0
ITEM: NUMBER OF ATOMS
9
ITEM: BOX BOUNDS pp pp pp
-96.2052 134.68728
-120.2565 168.3591
-120.2565 168.3591
ITEM: ATOMS id type x y z Cluster
478226 2 -1.37436 -5.15385 49.82055 0
478337 3 -2.74872 -3.4359 51.5385 0
478324 3 -1.37436 -5.15385 53.25645 0
480958 3 1.37436 -5.15385 49.82055 0
480971 3 0.0 -3.4359 48.1026 0
481055 2 0.0 -6.8718 51.5385 0
481056 4 1.37436 -5.15385 53.25645 0
481071 4 2.74872 -3.4359 51.5385 0
481153 4 0.0 -6.8718 54.9744 0
