ITEM: TIMESTEP
0
ITEM: NUMBER OF ATOMS
14
ITEM: BOX BOUNDS pp pp pp
-120.2565 168.3591
-120.2565 168.3591
-120.2565 168.3591
ITEM: ATOMS id type x y z Cluster
545782 4 -15.4616 101.35905 63.5642 2157
545879 4 -17.1795 99.6411 65.2821 2157
545881 1 -13.7436 99.6411 65.2821 2157
545893 4 -17.1795 103.077 65.2821 2157
545895 3 -13.7436 103.077 65.2821 2157
545866 2 -15.4616 97.92315 67.0 2157
545878 2 -18.8974 101.35905 67.0 2157
545977 3 -17.1795 99.6411 68.718 2157
545979 1 -13.7436 99.6411 68.718 2157
545882 1 -12.0257 101.35905 67.0 2157
545894 4 -15.4616 104.79495 67.0 2157
545991 2 -17.1795 103.077 68.718 2157
545993 2 -13.7436 103.077 68.718 2157
545978 2 -15.4616 101.35905 70.436 2157
