ITEM: TIMESTEP
0
ITEM: NUMBER OF ATOMS
24
ITEM: BOX BOUNDS pp pp pp
-120.2565 168.3591
-120.2565 168.3591
-120.2565 168.3591
ITEM: ATOMS id type x y z Cluster
523422 4 -18.8974 49.82055 146.02575 229
523424 2 -15.4616 49.82055 146.02575 229
523436 1 -18.8974 53.25645 146.02575 229
523437 2 -17.1795 51.5385 144.3078 229
523438 4 -15.4616 53.25645 146.02575 229
523520 1 -18.8974 49.82055 149.46165 229
523521 1 -17.1795 48.1026 147.7437 229
523522 2 -15.4616 49.82055 149.46165 229
523533 4 -20.6154 51.5385 147.7437 229
523534 3 -18.8974 53.25645 149.46165 229
523536 4 -15.4616 53.25645 149.46165 229
523537 1 -13.7436 51.5385 147.7437 229
523548 4 -18.8974 56.69235 149.46165 229
523549 1 -17.1795 54.9744 147.7437 229
523550 2 -15.4616 56.69235 149.46165 229
523632 1 -18.8974 53.25645 152.89755 229
523633 2 -17.1795 51.5385 151.1796 229
523634 2 -15.4616 53.25645 152.89755 229
523645 3 -20.6154 54.9744 151.1796 229
523646 4 -18.8974 56.69235 152.89755 229
523648 1 -15.4616 56.69235 152.89755 229
523649 3 -13.7436 54.9744 151.1796 229
523661 4 -17.1795 58.4103 151.1796 229
523745 3 -17.1795 54.9744 154.6155 229
