ITEM: TIMESTEP
0
ITEM: NUMBER OF ATOMS
14
ITEM: BOX BOUNDS pp pp pp
-120.2565 168.3591
-120.2565 168.3591
-120.2565 168.3591
ITEM: ATOMS id type x y z Cluster
573222 4 -15.4616 149.46165 15.4616 2098
573319 4 -17.1795 147.7437 17.1795 2098
573321 1 -13.7436 147.7437 17.1795 2098
573333 4 -17.1795 151.1796 17.1795 2098
573335 3 -13.7436 151.1796 17.1795 2098
573306 2 -15.4616 146.02575 18.8974 2098
573318 2 -18.8974 149.46165 18.8974 2098
573417 3 -17.1795 147.7437 20.6154 2098
573419 1 -13.7436 147.7437 20.6154 2098
573322 1 -12.0257 149.46165 18.8974 2098
573334 4 -15.4616 152.89755 18.8974 2098
573431 2 -17.1795 151.1796 20.6154 2098
573433 2 -13.7436 151.1796 20.6154 2098
573418 2 -15.4616 149.46165 22.3334 2098
