ITEM: TIMESTEP
0
ITEM: NUMBER OF ATOMS
9
ITEM: BOX BOUNDS pp pp pp
-96.2052 134.68728
-120.2565 168.3591
-120.2565 168.3591
ITEM: ATOMS id type x y z Cluster
780066 2 37.10772 139.15395 97.92315 0
780080 4 37.10772 142.58985 97.92315 0
780177 3 35.73336 140.8719 99.6411 0
782798 3 39.85644 139.15395 97.92315 0
782811 3 38.48208 140.8719 96.2052 0
782812 1 39.85644 142.58985 97.92315 0
782895 2 38.48208 137.436 99.6411 0
782911 4 41.2308 140.8719 99.6411 0
784099 3 38.48208 144.3078 96.2052 0
