ITEM: TIMESTEP
0
ITEM: NUMBER OF ATOMS
36
ITEM: BOX BOUNDS pp pp pp
-120.2565 168.3591
-120.2565 168.3591
-120.2565 168.3591
ITEM: ATOMS id type x y z Cluster
237899 3 -54.9744 -37.7949 -54.9744 47
237884 1 -56.69235 -39.51285 -53.25645 47
237983 3 -54.9744 -41.2308 -51.5385 47
237886 2 -53.25645 -39.51285 -53.25645 47
237985 4 -51.5385 -41.2308 -51.5385 47
237888 4 -49.82055 -39.51285 -53.25645 47
237995 1 -58.4103 -37.7949 -51.5385 47
237999 2 -51.5385 -37.7949 -51.5385 47
237898 4 -56.69235 -36.0769 -53.25645 47
238011 4 -54.9744 -34.359 -51.5385 47
237900 2 -53.25645 -36.0769 -53.25645 47
237972 2 -49.82055 -42.94875 -49.82055 47
237982 4 -56.69235 -39.51285 -49.82055 47
237984 4 -53.25645 -39.51285 -49.82055 47
237996 3 -56.69235 -36.0769 -49.82055 47
237998 4 -53.25645 -36.0769 -49.82055 47
238000 2 -49.82055 -36.0769 -49.82055 47
238010 1 -56.69235 -32.641 -49.82055 47
238012 2 -53.25645 -32.641 -49.82055 47
238083 1 -51.5385 -41.2308 -48.1026 47
238084 3 -49.82055 -39.51285 -46.38465 47
238095 3 -54.9744 -37.7949 -48.1026 47
238097 2 -51.5385 -37.7949 -48.1026 47
238107 2 -58.4103 -34.359 -48.1026 47
238094 4 -56.69235 -36.0769 -46.38465 47
238096 4 -53.25645 -36.0769 -46.38465 47
238111 4 -51.5385 -34.359 -48.1026 47
238108 2 -56.69235 -32.641 -46.38465 47
238123 4 -54.9744 -30.9231 -48.1026 47
238110 2 -53.25645 -32.641 -46.38465 47
238207 1 -54.9744 -34.359 -44.6667 47
240717 4 -48.1026 -41.2308 -51.5385 47
240731 1 -48.1026 -37.7949 -51.5385 47
240718 1 -46.38465 -39.51285 -49.82055 47
240815 1 -48.1026 -41.2308 -48.1026 47
240829 2 -48.1026 -37.7949 -48.1026 47
