ITEM: TIMESTEP
0
ITEM: NUMBER OF ATOMS
24
ITEM: BOX BOUNDS pp pp pp
-120.2565 168.3591
-120.2565 168.3591
-120.2565 168.3591
ITEM: ATOMS id type x y z Cluster
836238 4 77.3078 -46.38465 1.71795 299
836240 2 80.7436 -46.38465 1.71795 299
836252 1 77.3078 -42.94875 1.71795 299
836253 2 79.0257 -44.6667 0.0 299
836254 4 80.7436 -42.94875 1.71795 299
836336 1 77.3078 -46.38465 5.15385 299
836337 1 79.0257 -48.1026 3.4359 299
836338 2 80.7436 -46.38465 5.15385 299
836349 4 75.5898 -44.6667 3.4359 299
836350 3 77.3078 -42.94875 5.15385 299
836352 4 80.7436 -42.94875 5.15385 299
836353 1 82.4616 -44.6667 3.4359 299
836364 4 77.3078 -39.51285 5.15385 299
836365 1 79.0257 -41.2308 3.4359 299
836366 2 80.7436 -39.51285 5.15385 299
836448 1 77.3078 -42.94875 8.58975 299
836449 2 79.0257 -44.6667 6.8718 299
836450 2 80.7436 -42.94875 8.58975 299
836461 3 75.5898 -41.2308 6.8718 299
836462 4 77.3078 -39.51285 8.58975 299
836464 1 80.7436 -39.51285 8.58975 299
836465 3 82.4616 -41.2308 6.8718 299
836477 4 79.0257 -37.7949 6.8718 299
836561 3 79.0257 -41.2308 10.3077 299
