ITEM: TIMESTEP
0
ITEM: NUMBER OF ATOMS
14
ITEM: BOX BOUNDS pp pp pp
-120.2565 168.3591
-120.2565 168.3591
-120.2565 168.3591
ITEM: ATOMS id type x y z Cluster
643215 1 44.6667 -65.2821 61.8462 2210
643118 4 46.38465 -63.5642 60.1283 2210
643229 2 44.6667 -61.8462 61.8462 2210
643202 2 46.38465 -67.0 63.5642 2210
643214 1 42.94875 -63.5642 63.5642 2210
643313 2 44.6667 -65.2821 65.2821 2210
643327 1 44.6667 -61.8462 65.2821 2210
643230 1 46.38465 -60.1283 63.5642 2210
643314 1 46.38465 -63.5642 67.0 2210
645947 4 48.1026 -65.2821 61.8462 2210
645961 4 48.1026 -61.8462 61.8462 2210
645948 4 49.82055 -63.5642 63.5642 2210
646045 4 48.1026 -65.2821 65.2821 2210
646059 3 48.1026 -61.8462 65.2821 2210
