ITEM: TIMESTEP
0
ITEM: NUMBER OF ATOMS
16
ITEM: BOX BOUNDS pp pp pp
-96.2052 134.68728
-120.2565 168.3591
-120.2565 168.3591
ITEM: ATOMS id type x y z Cluster
187460 3 -78.33852 139.15395 101.35905 2
187474 4 -78.33852 142.58985 101.35905 2
187571 1 -79.71288 140.8719 103.077 2
187558 3 -78.33852 139.15395 104.79495 2
188664 3 -78.33852 146.02575 97.92315 2
188761 3 -79.71288 144.3078 99.6411 2
188762 3 -78.33852 146.02575 101.35905 2
190192 4 -75.5898 139.15395 101.35905 2
190206 1 -75.5898 142.58985 101.35905 2
190289 4 -76.96416 137.436 103.077 2
190290 1 -75.5898 139.15395 104.79495 2
190305 1 -74.21544 140.8719 103.077 2
191396 4 -75.5898 146.02575 97.92315 2
191494 3 -75.5898 146.02575 101.35905 2
191495 1 -74.21544 144.3078 99.6411 2
191507 3 -76.96416 147.7437 99.6411 2
