ITEM: TIMESTEP
0
ITEM: NUMBER OF ATOMS
16
ITEM: BOX BOUNDS pp pp pp
-96.2052 134.68728
-120.2565 168.3591
-120.2565 168.3591
ITEM: ATOMS id type x y z Cluster
99652 3 -78.33852 42.94875 -91.05135 2
99666 4 -78.33852 46.38465 -91.05135 2
99763 1 -79.71288 44.6667 -89.3334 2
99750 3 -78.33852 42.94875 -87.61545 2
100856 3 -78.33852 49.82055 -94.48725 2
100953 3 -79.71288 48.1026 -92.7693 2
100954 3 -78.33852 49.82055 -91.05135 2
102384 4 -75.5898 42.94875 -91.05135 2
102398 1 -75.5898 46.38465 -91.05135 2
102481 4 -76.96416 41.2308 -89.3334 2
102482 1 -75.5898 42.94875 -87.61545 2
102497 1 -74.21544 44.6667 -89.3334 2
103588 4 -75.5898 49.82055 -94.48725 2
103686 3 -75.5898 49.82055 -91.05135 2
103687 1 -74.21544 48.1026 -92.7693 2
103699 3 -76.96416 51.5385 -92.7693 2
