ITEM: TIMESTEP
0
ITEM: NUMBER OF ATOMS
16
ITEM: BOX BOUNDS pp pp pp
-96.2052 134.68728
-120.2565 168.3591
-120.2565 168.3591
ITEM: ATOMS id type x y z Cluster
445312 4 -1.37436 -49.82055 49.82055 2
445410 4 -1.37436 -49.82055 53.25645 2
445507 1 -2.74872 -51.5385 54.9744 2
445494 3 -1.37436 -53.25645 56.69235 2
445508 1 -1.37436 -49.82055 56.69235 2
446600 3 -1.37436 -46.38465 49.82055 2
446697 3 -2.74872 -48.1026 51.5385 2
448044 1 1.37436 -49.82055 49.82055 2
448142 1 1.37436 -49.82055 53.25645 2
448226 1 1.37436 -53.25645 56.69235 2
448241 1 2.74872 -51.5385 54.9744 2
448240 4 1.37436 -49.82055 56.69235 2
448337 4 0.0 -51.5385 58.4103 2
449331 3 0.0 -48.1026 48.1026 2
449332 4 1.37436 -46.38465 49.82055 2
449431 1 2.74872 -48.1026 51.5385 2
