ITEM: TIMESTEP
0
ITEM: NUMBER OF ATOMS
16
ITEM: BOX BOUNDS pp pp pp
-57.72312 57.72312
-72.1539 72.1539
-72.1539 72.1539
ITEM: ATOMS id type x y z Cluster
55664 4 -1.37436 -49.82055 1.71795 2
55762 4 -1.37436 -49.82055 5.15385 2
55859 1 -2.74872 -51.5385 6.8718 2
55846 3 -1.37436 -53.25645 8.58975 2
55860 1 -1.37436 -49.82055 8.58975 2
56952 3 -1.37436 -46.38465 1.71795 2
57049 3 -2.74872 -48.1026 3.4359 2
58396 1 1.37436 -49.82055 1.71795 2
58494 1 1.37436 -49.82055 5.15385 2
58578 1 1.37436 -53.25645 8.58975 2
58593 1 2.74872 -51.5385 6.8718 2
58592 4 1.37436 -49.82055 8.58975 2
58689 4 0.0 -51.5385 10.3077 2
59683 3 0.0 -48.1026 0.0 2
59684 4 1.37436 -46.38465 1.71795 2
59783 1 2.74872 -48.1026 3.4359 2
