ITEM: TIMESTEP
0
ITEM: NUMBER OF ATOMS
24
ITEM: BOX BOUNDS pp pp pp
-120.2565 168.3591
-120.2565 168.3591
-120.2565 168.3591
ITEM: ATOMS id type x y z Cluster
627694 4 29.2052 -46.38465 -94.48725 575
627696 2 32.641 -46.38465 -94.48725 575
627708 1 29.2052 -42.94875 -94.48725 575
627709 2 30.9231 -44.6667 -96.2052 575
627710 4 32.641 -42.94875 -94.48725 575
627792 1 29.2052 -46.38465 -91.05135 575
627793 1 30.9231 -48.1026 -92.7693 575
627794 2 32.641 -46.38465 -91.05135 575
627805 4 27.4872 -44.6667 -92.7693 575
627806 3 29.2052 -42.94875 -91.05135 575
627808 4 32.641 -42.94875 -91.05135 575
627809 1 34.359 -44.6667 -92.7693 575
627820 4 29.2052 -39.51285 -91.05135 575
627821 1 30.9231 -41.2308 -92.7693 575
627822 2 32.641 -39.51285 -91.05135 575
627904 1 29.2052 -42.94875 -87.61545 575
627905 2 30.9231 -44.6667 -89.3334 575
627906 2 32.641 -42.94875 -87.61545 575
627917 3 27.4872 -41.2308 -89.3334 575
627918 4 29.2052 -39.51285 -87.61545 575
627920 1 32.641 -39.51285 -87.61545 575
627921 3 34.359 -41.2308 -89.3334 575
627933 4 30.9231 -37.7949 -89.3334 575
628017 3 30.9231 -41.2308 -85.8975 575
