ITEM: TIMESTEP
0
ITEM: NUMBER OF ATOMS
9
ITEM: BOX BOUNDS pp pp pp
-96.2052 134.68728
-120.2565 168.3591
-120.2565 168.3591
ITEM: ATOMS id type x y z Cluster
862596 1 75.5898 -1.71795 -39.51285 1
863883 4 74.21544 0.0 -41.2308 1
863884 3 75.5898 1.71795 -39.51285 1
865328 4 78.33852 -1.71795 -39.51285 1
865425 4 76.96416 -3.4359 -37.7949 1
866616 1 78.33852 1.71795 -39.51285 1
866617 4 79.71288 0.0 -41.2308 1
866629 3 76.96416 3.4359 -41.2308 1
866713 2 76.96416 0.0 -37.7949 1
