ITEM: TIMESTEP
0
ITEM: NUMBER OF ATOMS
14
ITEM: BOX BOUNDS pp pp pp
-120.2565 168.3591
-120.2565 168.3591
-120.2565 168.3591
ITEM: ATOMS id type x y z Cluster
1093231 1 140.8719 30.9231 -34.359 992
1093134 4 142.58985 32.641 -36.0769 992
1093245 2 140.8719 34.359 -34.359 992
1093218 2 142.58985 29.2052 -32.641 992
1093230 1 139.15395 32.641 -32.641 992
1093329 2 140.8719 30.9231 -30.9231 992
1093343 1 140.8719 34.359 -30.9231 992
1093246 1 142.58985 36.0769 -32.641 992
1093330 1 142.58985 32.641 -29.2052 992
1095963 4 144.3078 30.9231 -34.359 992
1095977 4 144.3078 34.359 -34.359 992
1095964 4 146.02575 32.641 -32.641 992
1096061 4 144.3078 30.9231 -30.9231 992
1096075 3 144.3078 34.359 -30.9231 992
