ITEM: TIMESTEP
0
ITEM: NUMBER OF ATOMS
9
ITEM: BOX BOUNDS pp pp pp
-96.2052 134.68728
-120.2565 168.3591
-120.2565 168.3591
ITEM: ATOMS id type x y z Cluster
544082 2 -1.37436 91.05135 49.82055 0
544096 4 -1.37436 94.48725 49.82055 0
544193 3 -2.74872 92.7693 51.5385 0
546814 3 1.37436 91.05135 49.82055 0
546827 3 0.0 92.7693 48.1026 0
546828 1 1.37436 94.48725 49.82055 0
546911 2 0.0 89.3334 51.5385 0
546927 4 2.74872 92.7693 51.5385 0
548115 3 0.0 96.2052 48.1026 0
