ITEM: TIMESTEP
0
ITEM: NUMBER OF ATOMS
14
ITEM: BOX BOUNDS pp pp pp
-120.2565 168.3591
-120.2565 168.3591
-120.2565 168.3591
ITEM: ATOMS id type x y z Cluster
598282 1 32.641 -97.92315 -70.436 2265
598366 3 32.641 -101.35905 -67.0 2265
598379 4 30.9231 -99.6411 -68.718 2265
598381 2 34.359 -99.6411 -68.718 2265
598378 2 29.2052 -97.92315 -67.0 2265
598382 3 36.0769 -97.92315 -67.0 2265
598477 3 30.9231 -99.6411 -65.2821 2265
598479 4 34.359 -99.6411 -65.2821 2265
598478 1 32.641 -97.92315 -63.5642 2265
599667 2 30.9231 -96.2052 -68.718 2265
599668 4 32.641 -94.48725 -67.0 2265
599669 2 34.359 -96.2052 -68.718 2265
599765 2 30.9231 -96.2052 -65.2821 2265
599767 3 34.359 -96.2052 -65.2821 2265
