ITEM: TIMESTEP
0
ITEM: NUMBER OF ATOMS
24
ITEM: BOX BOUNDS pp pp pp
-120.2565 168.3591
-120.2565 168.3591
-120.2565 168.3591
ITEM: ATOMS id type x y z Cluster
1076179 4 140.8719 -17.1795 89.3334 452
1076082 4 142.58985 -15.4616 87.61545 452
1076191 3 137.436 -13.7436 89.3334 452
1076193 1 140.8719 -13.7436 89.3334 452
1076205 2 137.436 -10.3077 89.3334 452
1076094 1 139.15395 -12.0257 87.61545 452
1076207 4 140.8719 -10.3077 89.3334 452
1076166 2 142.58985 -18.8974 91.05135 452
1076178 1 139.15395 -15.4616 91.05135 452
1076277 3 140.8719 -17.1795 92.7693 452
1076289 2 137.436 -13.7436 92.7693 452
1076291 1 140.8719 -13.7436 92.7693 452
1076190 3 135.71805 -12.0257 91.05135 452
1076303 4 137.436 -10.3077 92.7693 452
1076305 4 140.8719 -10.3077 92.7693 452
1076194 2 142.58985 -12.0257 91.05135 452
1076206 2 139.15395 -8.58975 91.05135 452
1076278 2 142.58985 -15.4616 94.48725 452
1076290 3 139.15395 -12.0257 94.48725 452
1078911 3 144.3078 -17.1795 89.3334 452
1078925 4 144.3078 -13.7436 89.3334 452
1078912 3 146.02575 -15.4616 91.05135 452
1079009 2 144.3078 -17.1795 92.7693 452
1079023 2 144.3078 -13.7436 92.7693 452
