ITEM: TIMESTEP
0
ITEM: NUMBER OF ATOMS
9
ITEM: BOX BOUNDS pp pp pp
-96.2052 134.68728
-120.2565 168.3591
-120.2565 168.3591
ITEM: ATOMS id type x y z Cluster
900802 2 75.5898 42.94875 1.71795 0
900816 4 75.5898 46.38465 1.71795 0
900913 3 74.21544 44.6667 3.4359 0
903534 3 78.33852 42.94875 1.71795 0
903547 3 76.96416 44.6667 0.0 0
903548 1 78.33852 46.38465 1.71795 0
903631 2 76.96416 41.2308 3.4359 0
903647 4 79.71288 44.6667 3.4359 0
904835 3 76.96416 48.1026 0.0 0
