ITEM: TIMESTEP
0
ITEM: NUMBER OF ATOMS
14
ITEM: BOX BOUNDS pp pp pp
-120.2565 168.3591
-120.2565 168.3591
-120.2565 168.3591
ITEM: ATOMS id type x y z Cluster
615410 3 42.94875 -104.79495 97.92315 2302
615425 3 44.6667 -103.077 96.2052 2302
615412 2 46.38465 -104.79495 97.92315 2302
615424 4 42.94875 -101.35905 97.92315 2302
615426 2 46.38465 -101.35905 97.92315 2302
615509 3 44.6667 -106.5129 99.6411 2302
615521 4 41.2308 -103.077 99.6411 2302
615508 2 42.94875 -104.79495 101.35905 2302
615510 4 46.38465 -104.79495 101.35905 2302
615522 3 42.94875 -101.35905 101.35905 2302
615537 3 44.6667 -99.6411 99.6411 2302
615524 3 46.38465 -101.35905 101.35905 2302
615621 2 44.6667 -103.077 103.077 2302
618255 2 48.1026 -103.077 99.6411 2302
