ITEM: TIMESTEP
0
ITEM: NUMBER OF ATOMS
24
ITEM: BOX BOUNDS pp pp pp
-120.2565 168.3591
-120.2565 168.3591
-120.2565 168.3591
ITEM: ATOMS id type x y z Cluster
474030 4 -18.8974 1.71795 1.71795 315
474032 2 -15.4616 1.71795 1.71795 315
474044 1 -18.8974 5.15385 1.71795 315
474045 2 -17.1795 3.4359 0.0 315
474046 4 -15.4616 5.15385 1.71795 315
474128 1 -18.8974 1.71795 5.15385 315
474129 1 -17.1795 0.0 3.4359 315
474130 2 -15.4616 1.71795 5.15385 315
474141 4 -20.6154 3.4359 3.4359 315
474142 3 -18.8974 5.15385 5.15385 315
474144 4 -15.4616 5.15385 5.15385 315
474145 1 -13.7436 3.4359 3.4359 315
474156 4 -18.8974 8.58975 5.15385 315
474157 1 -17.1795 6.8718 3.4359 315
474158 2 -15.4616 8.58975 5.15385 315
474240 1 -18.8974 5.15385 8.58975 315
474241 2 -17.1795 3.4359 6.8718 315
474242 2 -15.4616 5.15385 8.58975 315
474253 3 -20.6154 6.8718 6.8718 315
474254 4 -18.8974 8.58975 8.58975 315
474256 1 -15.4616 8.58975 8.58975 315
474257 3 -13.7436 6.8718 6.8718 315
474269 4 -17.1795 10.3077 6.8718 315
474353 3 -17.1795 6.8718 10.3077 315
