ITEM: TIMESTEP
0
ITEM: NUMBER OF ATOMS
14
ITEM: BOX BOUNDS pp pp pp
-120.2565 168.3591
-120.2565 168.3591
-120.2565 168.3591
ITEM: ATOMS id type x y z Cluster
676143 1 44.6667 -17.1795 61.8462 2229
676046 4 46.38465 -15.4616 60.1283 2229
676157 2 44.6667 -13.7436 61.8462 2229
676130 2 46.38465 -18.8974 63.5642 2229
676142 1 42.94875 -15.4616 63.5642 2229
676241 2 44.6667 -17.1795 65.2821 2229
676255 1 44.6667 -13.7436 65.2821 2229
676158 1 46.38465 -12.0257 63.5642 2229
676242 1 46.38465 -15.4616 67.0 2229
678875 4 48.1026 -17.1795 61.8462 2229
678889 4 48.1026 -13.7436 61.8462 2229
678876 4 49.82055 -15.4616 63.5642 2229
678973 4 48.1026 -17.1795 65.2821 2229
678987 3 48.1026 -13.7436 65.2821 2229
