ITEM: TIMESTEP
0
ITEM: NUMBER OF ATOMS
36
ITEM: BOX BOUNDS pp pp pp
-120.2565 168.3591
-120.2565 168.3591
-120.2565 168.3591
ITEM: ATOMS id type x y z Cluster
369611 3 -54.9744 154.6155 -54.9744 37
369596 1 -56.69235 152.89755 -53.25645 37
369695 3 -54.9744 151.1796 -51.5385 37
369598 2 -53.25645 152.89755 -53.25645 37
369697 4 -51.5385 151.1796 -51.5385 37
369600 4 -49.82055 152.89755 -53.25645 37
369707 1 -58.4103 154.6155 -51.5385 37
369711 2 -51.5385 154.6155 -51.5385 37
369610 4 -56.69235 156.3335 -53.25645 37
369723 4 -54.9744 158.0514 -51.5385 37
369612 2 -53.25645 156.3335 -53.25645 37
369684 2 -49.82055 149.46165 -49.82055 37
369694 4 -56.69235 152.89755 -49.82055 37
369696 4 -53.25645 152.89755 -49.82055 37
369708 3 -56.69235 156.3335 -49.82055 37
369710 4 -53.25645 156.3335 -49.82055 37
369712 2 -49.82055 156.3335 -49.82055 37
369722 1 -56.69235 159.7694 -49.82055 37
369724 2 -53.25645 159.7694 -49.82055 37
369795 1 -51.5385 151.1796 -48.1026 37
369796 3 -49.82055 152.89755 -46.38465 37
369807 3 -54.9744 154.6155 -48.1026 37
369809 2 -51.5385 154.6155 -48.1026 37
369819 2 -58.4103 158.0514 -48.1026 37
369806 4 -56.69235 156.3335 -46.38465 37
369808 4 -53.25645 156.3335 -46.38465 37
369823 4 -51.5385 158.0514 -48.1026 37
369820 2 -56.69235 159.7694 -46.38465 37
369835 4 -54.9744 161.4873 -48.1026 37
369822 2 -53.25645 159.7694 -46.38465 37
369919 1 -54.9744 158.0514 -44.6667 37
372429 4 -48.1026 151.1796 -51.5385 37
372443 1 -48.1026 154.6155 -51.5385 37
372430 1 -46.38465 152.89755 -49.82055 37
372527 1 -48.1026 151.1796 -48.1026 37
372541 2 -48.1026 154.6155 -48.1026 37
