ITEM: TIMESTEP
0
ITEM: NUMBER OF ATOMS
24
ITEM: BOX BOUNDS pp pp pp
-120.2565 168.3591
-120.2565 168.3591
-120.2565 168.3591
ITEM: ATOMS id type x y z Cluster
967950 4 77.3078 146.02575 1.71795 395
967952 2 80.7436 146.02575 1.71795 395
967964 1 77.3078 149.46165 1.71795 395
967965 2 79.0257 147.7437 0.0 395
967966 4 80.7436 149.46165 1.71795 395
968048 1 77.3078 146.02575 5.15385 395
968049 1 79.0257 144.3078 3.4359 395
968050 2 80.7436 146.02575 5.15385 395
968061 4 75.5898 147.7437 3.4359 395
968062 3 77.3078 149.46165 5.15385 395
968064 4 80.7436 149.46165 5.15385 395
968065 1 82.4616 147.7437 3.4359 395
968076 4 77.3078 152.89755 5.15385 395
968077 1 79.0257 151.1796 3.4359 395
968078 2 80.7436 152.89755 5.15385 395
968160 1 77.3078 149.46165 8.58975 395
968161 2 79.0257 147.7437 6.8718 395
968162 2 80.7436 149.46165 8.58975 395
968173 3 75.5898 151.1796 6.8718 395
968174 4 77.3078 152.89755 8.58975 395
968176 1 80.7436 152.89755 8.58975 395
968177 3 82.4616 151.1796 6.8718 395
968189 4 79.0257 154.6155 6.8718 395
968273 3 79.0257 151.1796 10.3077 395
