ITEM: TIMESTEP
0
ITEM: NUMBER OF ATOMS
9
ITEM: BOX BOUNDS pp pp pp
-96.2052 134.68728
-120.2565 168.3591
-120.2565 168.3591
ITEM: ATOMS id type x y z Cluster
28420 1 -78.33852 -97.92315 152.89755 1
29707 4 -79.71288 -96.2052 151.1796 1
29708 3 -78.33852 -94.48725 152.89755 1
31152 4 -75.5898 -97.92315 152.89755 1
31249 4 -76.96416 -99.6411 154.6155 1
32440 1 -75.5898 -94.48725 152.89755 1
32441 4 -74.21544 -96.2052 151.1796 1
32453 3 -76.96416 -92.7693 151.1796 1
32537 2 -76.96416 -96.2052 154.6155 1
